/*--------------------------------*- C++ -*----------------------------------*\
| =========                 |                                                 |
| \\      /  F ield         | OpenFOAM: The Open Source CFD Toolbox           |
|  \\    /   O peration     | Version:  5.0                                   |
|   \\  /    A nd           | Web:      www.OpenFOAM.org                      |
|    \\/     M anipulation  |                                                 |
\*---------------------------------------------------------------------------*/
FoamFile
{
    version     2.0;
    format      ascii;
    class       surfaceScalarField;
    location    "200/porous";
    object      phi;
}
// * * * * * * * * * * * * * * * * * * * * * * * * * * * * * * * * * * * * * //

dimensions      [1 0 -1 0 0 0 0];

internalField   nonuniform List<scalar> 
104700
(
7.63469e-05
2.58379e-06
8.7736e-05
4.58797e-05
1.53403e-06
2.89331e-05
3.349e-05
1.32405e-06
1.10657e-05
2.82039e-05
1.09915e-06
4.18698e-06
2.50882e-05
9.25617e-07
2.19001e-06
2.29209e-05
7.9564e-07
1.37166e-06
2.12657e-05
6.96076e-07
9.59132e-07
1.99381e-05
6.17632e-07
7.10022e-07
1.88402e-05
5.5376e-07
5.44139e-07
1.79117e-05
5.00389e-07
4.28098e-07
1.71129e-05
4.54854e-07
3.43909e-07
1.64164e-05
4.15357e-07
2.81215e-07
1.58021e-05
3.80647e-07
2.33581e-07
1.52555e-05
3.49827e-07
1.96806e-07
1.47652e-05
3.22245e-07
1.68029e-07
1.43226e-05
2.97425e-07
1.45226e-07
1.39206e-05
2.75014e-07
1.26925e-07
1.35539e-05
2.54742e-07
1.12026e-07
1.32178e-05
2.36379e-07
9.97028e-08
1.29087e-05
2.19698e-07
8.93531e-08
1.26237e-05
2.04438e-07
8.05725e-08
1.23603e-05
1.90277e-07
7.31359e-08
1.21165e-05
1.76826e-07
6.69799e-08
1.18907e-05
1.63642e-07
6.21759e-08
1.16815e-05
1.50279e-07
5.88687e-08
1.1488e-05
1.36335e-07
5.72158e-08
1.13091e-05
1.2153e-07
5.73063e-08
1.11443e-05
1.05761e-07
5.90905e-08
1.09928e-05
8.91359e-08
6.23272e-08
1.08543e-05
7.19719e-08
6.65829e-08
1.07283e-05
5.47631e-08
7.12572e-08
1.06145e-05
3.81481e-08
7.56345e-08
1.05127e-05
2.27526e-08
7.89765e-08
1.0423e-05
9.28953e-09
8.04732e-08
1.0345e-05
-1.89429e-09
7.98317e-08
1.02776e-05
-9.83272e-09
7.72852e-08
1.02188e-05
-1.43768e-08
7.31268e-08
1.01679e-05
-1.64122e-08
6.73348e-08
1.01172e-05
-8.12472e-09
5.8811e-08
-4.06119e-08
7.86902e-08
7.78123e-05
1.68802e-06
8.97501e-05
4.84263e-05
1.30124e-06
2.96188e-05
3.67847e-05
1.23874e-06
1.17269e-05
3.20157e-05
1.08313e-06
4.78499e-06
2.9323e-05
9.49933e-07
2.66843e-06
2.74966e-05
8.41368e-07
1.78063e-06
2.61194e-05
7.51001e-07
1.32234e-06
2.50213e-05
6.75253e-07
1.04048e-06
2.41151e-05
6.10612e-07
8.49268e-07
2.33484e-05
5.54623e-07
7.12534e-07
2.26869e-05
5.05506e-07
6.108e-07
2.21075e-05
4.61966e-07
5.32775e-07
2.15937e-05
4.23043e-07
4.71445e-07
2.11333e-05
3.88015e-07
4.22226e-07
2.07172e-05
3.56339e-07
3.81998e-07
2.03385e-05
3.27602e-07
3.48565e-07
1.99917e-05
3.0148e-07
3.20328e-07
1.96726e-05
2.77695e-07
2.96094e-07
1.93781e-05
2.55962e-07
2.74971e-07
1.91055e-05
2.35938e-07
2.56306e-07
1.88531e-05
2.17174e-07
2.39655e-07
1.86195e-05
1.99076e-07
2.24782e-07
1.84038e-05
1.80914e-07
2.11635e-07
1.82053e-05
1.61858e-07
2.00329e-07
1.80234e-05
1.41062e-07
1.91091e-07
1.78578e-05
1.17783e-07
1.84188e-07
1.7708e-05
9.15102e-08
1.7983e-07
1.75736e-05
6.2089e-08
1.78064e-07
1.74543e-05
2.9801e-08
1.78634e-07
1.73499e-05
-4.59613e-09
1.80951e-07
1.72601e-05
-3.98998e-08
1.84464e-07
1.71839e-05
-7.44153e-08
1.88762e-07
1.71197e-05
-1.06167e-07
1.93073e-07
1.70657e-05
-1.32992e-07
1.96326e-07
1.70199e-05
-1.53334e-07
1.97215e-07
1.69808e-05
-1.64979e-07
1.943e-07
1.69478e-05
-1.69012e-07
1.87615e-07
1.69168e-05
-1.59079e-07
1.73653e-07
1.68824e-05
-1.47736e-07
1.74027e-07
-9.63405e-08
7.00528e-08
7.76222e-05
1.22991e-06
8.95025e-05
4.84082e-05
1.23644e-06
2.92788e-05
3.69389e-05
1.20918e-06
1.14989e-05
3.23082e-05
1.07743e-06
4.63645e-06
2.97455e-05
9.49168e-07
2.56345e-06
2.80398e-05
8.39586e-07
1.70742e-06
2.67759e-05
7.46483e-07
1.26842e-06
2.57851e-05
6.681e-07
9.98032e-07
2.49806e-05
6.01586e-07
8.13434e-07
2.43105e-05
5.44533e-07
6.80259e-07
2.37408e-05
4.95025e-07
5.80181e-07
2.32485e-05
4.51587e-07
5.02643e-07
2.28174e-05
4.13094e-07
4.41106e-07
2.24354e-05
3.78691e-07
3.91298e-07
2.20937e-05
3.47723e-07
3.50315e-07
2.17855e-05
3.19685e-07
3.16111e-07
2.15056e-05
2.94167e-07
2.87202e-07
2.125e-05
2.70805e-07
2.62479e-07
2.10156e-05
2.4922e-07
2.41101e-07
2.08002e-05
2.28966e-07
2.22429e-07
2.06019e-05
2.0948e-07
2.05983e-07
2.04195e-05
1.90056e-07
1.91432e-07
2.0252e-05
1.69849e-07
1.78568e-07
2.00986e-05
1.47938e-07
1.67296e-07
1.99586e-05
1.23419e-07
1.57608e-07
1.98314e-05
9.55423e-08
1.49533e-07
1.97159e-05
6.38722e-08
1.43099e-07
1.96113e-05
2.84252e-08
1.38247e-07
1.95165e-05
-1.02282e-08
1.34856e-07
1.943e-05
-5.09088e-08
1.32783e-07
1.93505e-05
-9.18531e-08
1.31512e-07
1.92768e-05
-1.30862e-07
1.30058e-07
1.92088e-05
-1.65642e-07
1.27541e-07
1.91461e-05
-1.93829e-07
1.23497e-07
1.90889e-05
-2.13786e-07
1.17685e-07
1.9037e-05
-2.23116e-07
1.10036e-07
1.89904e-05
-2.23209e-07
1.00745e-07
1.89486e-05
-2.05461e-07
8.81785e-08
1.89077e-05
-1.90683e-07
8.39152e-08
-1.03786e-07
2.84126e-08
7.73814e-05
8.6914e-07
8.96461e-05
4.81319e-05
1.03757e-06
2.94483e-05
3.66931e-05
1.04579e-06
1.16022e-05
3.21097e-05
9.57489e-07
4.70331e-06
2.95979e-05
8.57842e-07
2.60315e-06
2.79412e-05
7.66342e-07
1.72993e-06
2.67235e-05
6.85049e-07
1.27908e-06
2.57762e-05
6.14487e-07
1.00093e-06
2.50129e-05
5.53392e-07
8.11473e-07
2.43818e-05
5.00286e-07
6.75363e-07
2.38494e-05
4.53812e-07
5.73626e-07
2.33929e-05
4.12828e-07
4.95256e-07
2.29962e-05
3.76407e-07
4.33403e-07
2.26475e-05
3.4381e-07
3.83596e-07
2.2338e-05
3.14447e-07
3.42793e-07
2.20609e-05
2.87839e-07
3.08862e-07
2.18113e-05
2.63584e-07
2.8026e-07
2.15849e-05
2.41304e-07
2.55842e-07
2.13788e-05
2.20607e-07
2.34736e-07
2.11905e-05
2.01032e-07
2.16266e-07
2.1018e-05
1.82016e-07
1.99907e-07
2.086e-05
1.62873e-07
1.85257e-07
2.0715e-05
1.42807e-07
1.72011e-07
2.0582e-05
1.2097e-07
1.59961e-07
2.04599e-05
9.65527e-08
1.48973e-07
2.03475e-05
6.89143e-08
1.38971e-07
2.02438e-05
3.77246e-08
1.2991e-07
2.01473e-05
3.09526e-09
1.21773e-07
2.00569e-05
-3.4333e-08
1.14529e-07
1.99713e-05
-7.33544e-08
1.0805e-07
1.98896e-05
-1.12274e-07
1.02091e-07
1.98114e-05
-1.49052e-07
9.64155e-08
1.97365e-05
-1.81571e-07
9.08335e-08
1.96651e-05
-2.07622e-07
8.51894e-08
1.95976e-05
-2.25614e-07
7.93305e-08
1.95345e-05
-2.33197e-07
7.31543e-08
1.94759e-05
-2.31346e-07
6.6803e-08
1.94238e-05
-2.12277e-07
5.88707e-08
1.93702e-05
-1.92035e-07
5.49284e-08
-1.15077e-07
5.16027e-08
7.72584e-05
6.76335e-07
8.96011e-05
4.79939e-05
9.27344e-07
2.93747e-05
3.65735e-05
9.71902e-07
1.14944e-05
3.20109e-05
9.16787e-07
4.6033e-06
2.95174e-05
8.35216e-07
2.51607e-06
2.78758e-05
7.52039e-07
1.65594e-06
2.66708e-05
6.74204e-07
1.2158e-06
2.57347e-05
6.04626e-07
9.46e-07
2.49817e-05
5.43474e-07
7.62931e-07
2.43603e-05
4.89996e-07
6.31648e-07
2.38374e-05
4.43177e-07
5.33538e-07
2.33903e-05
4.02012e-07
4.57894e-07
2.3003e-05
3.65606e-07
3.98103e-07
2.26638e-05
3.33205e-07
3.49866e-07
2.23638e-05
3.04177e-07
3.10282e-07
2.20963e-05
2.77999e-07
2.77313e-07
2.18562e-05
2.54219e-07
2.49497e-07
2.16393e-05
2.32418e-07
2.25741e-07
2.14425e-05
2.12174e-07
2.05214e-07
2.12633e-05
1.93017e-07
1.87264e-07
2.10995e-05
1.74403e-07
1.71368e-07
2.09496e-05
1.55698e-07
1.5711e-07
2.0812e-05
1.36195e-07
1.44156e-07
2.06856e-05
1.15159e-07
1.32246e-07
2.05691e-05
9.19099e-08
1.21184e-07
2.04612e-05
6.59328e-08
1.10831e-07
2.03608e-05
3.69916e-08
1.011e-07
2.02668e-05
5.23773e-09
9.19364e-08
2.01778e-05
-2.87231e-08
8.33064e-08
2.00931e-05
-6.38172e-08
7.51652e-08
2.0012e-05
-9.85679e-08
6.74679e-08
1.99339e-05
-1.31192e-07
6.01677e-08
1.9859e-05
-1.59818e-07
5.32122e-08
1.97873e-05
-1.82502e-07
4.65768e-08
1.97192e-05
-1.97798e-07
4.02408e-08
1.96556e-05
-2.03724e-07
3.4185e-08
1.95963e-05
-2.0073e-07
2.86257e-08
1.95452e-05
-1.8362e-07
2.24544e-08
1.94957e-05
-1.61842e-07
1.92753e-08
-1.07769e-07
3.42403e-08
7.71839e-05
5.19233e-07
8.96399e-05
4.78783e-05
7.76904e-07
2.9456e-05
3.64421e-05
8.36187e-07
1.1572e-05
3.18787e-05
8.04955e-07
4.67516e-06
2.93914e-05
7.4318e-07
2.57942e-06
2.77584e-05
6.74616e-07
1.71039e-06
2.65629e-05
6.07794e-07
1.26191e-06
2.56361e-05
5.46558e-07
9.84852e-07
2.48919e-05
4.91893e-07
7.95755e-07
2.42788e-05
4.43614e-07
6.59551e-07
2.37634e-05
4.01084e-07
5.57463e-07
2.33232e-05
3.63549e-07
4.78608e-07
2.29423e-05
3.30283e-07
4.16221e-07
2.2609e-05
3.00641e-07
3.65875e-07
2.23146e-05
2.74066e-07
3.2456e-07
2.20523e-05
2.50085e-07
2.90158e-07
2.18171e-05
2.2828e-07
2.61138e-07
2.16049e-05
2.08263e-07
2.36354e-07
2.14125e-05
1.89643e-07
2.14933e-07
2.12374e-05
1.71992e-07
1.96187e-07
2.10774e-05
1.54826e-07
1.79569e-07
2.09309e-05
1.37593e-07
1.64637e-07
2.07963e-05
1.19689e-07
1.51033e-07
2.06725e-05
1.005e-07
1.3848e-07
2.05582e-05
7.94642e-08
1.26767e-07
2.04522e-05
5.61662e-08
1.15745e-07
2.03535e-05
3.04285e-08
1.05323e-07
2.02608e-05
2.39701e-09
9.54571e-08
2.01734e-05
-2.74072e-08
8.61369e-08
2.00903e-05
-5.80756e-08
7.73809e-08
2.00108e-05
-8.83605e-08
6.921e-08
1.99348e-05
-1.1675e-07
6.16443e-08
1.98619e-05
-1.41639e-07
5.46865e-08
1.97924e-05
-1.61361e-07
4.83301e-08
1.97267e-05
-1.74586e-07
4.25607e-08
1.96653e-05
-1.79722e-07
3.72989e-08
1.96084e-05
-1.76481e-07
3.27318e-08
1.95596e-05
-1.62424e-07
2.75408e-08
1.95118e-05
-1.39007e-07
2.49702e-08
-1.04932e-07
4.22188e-08
7.71344e-05
4.18798e-07
8.96327e-05
4.78011e-05
6.65805e-07
2.94444e-05
3.63597e-05
7.38726e-07
1.15389e-05
3.18013e-05
7.28499e-07
4.63483e-06
2.93215e-05
6.84081e-07
2.53887e-06
2.76961e-05
6.27781e-07
1.67223e-06
2.65073e-05
5.69469e-07
1.22714e-06
2.55861e-05
5.14063e-07
9.53667e-07
2.48466e-05
4.63482e-07
7.67976e-07
2.42372e-05
4.18194e-07
6.3481e-07
2.37249e-05
3.77987e-07
5.35338e-07
2.32874e-05
3.42372e-07
4.5869e-07
2.29088e-05
3.10777e-07
3.98142e-07
2.25774e-05
2.82647e-07
3.49315e-07
2.22848e-05
2.57474e-07
3.09254e-07
2.20242e-05
2.34809e-07
2.75886e-07
2.17905e-05
2.14247e-07
2.47724e-07
2.15797e-05
1.95409e-07
2.23657e-07
2.13886e-05
1.77918e-07
2.0284e-07
2.12146e-05
1.61375e-07
1.84614e-07
2.10556e-05
1.45339e-07
1.68443e-07
2.091e-05
1.29326e-07
1.53903e-07
2.07762e-05
1.12816e-07
1.4064e-07
2.0653e-05
9.52945e-08
1.28378e-07
2.05393e-05
7.62991e-08
1.16901e-07
2.04339e-05
5.54963e-08
1.06052e-07
2.03359e-05
3.2755e-08
9.57283e-08
2.02442e-05
8.21451e-09
8.58726e-08
2.0158e-05
-1.76761e-08
7.6467e-08
2.00765e-05
-4.41482e-08
6.75176e-08
1.99993e-05
-7.0151e-08
5.90529e-08
1.99258e-05
-9.44155e-08
5.11066e-08
1.98561e-05
-1.15586e-07
4.3711e-08
1.97901e-05
-1.32274e-07
3.68956e-08
1.97281e-05
-1.43298e-07
3.06876e-08
1.96708e-05
-1.47499e-07
2.50474e-08
1.96183e-05
-1.44156e-07
2.02576e-08
1.9574e-05
-1.33037e-07
1.49029e-08
1.95327e-05
-1.1124e-07
1.35021e-08
-9.15352e-08
2.45458e-08
7.71072e-05
3.33322e-07
8.9645e-05
4.77479e-05
5.50836e-07
2.94742e-05
3.62918e-05
6.23611e-07
1.15713e-05
3.17276e-05
6.24062e-07
4.66859e-06
2.92469e-05
5.91954e-07
2.57285e-06
2.76232e-05
5.46633e-07
1.70482e-06
2.64375e-05
4.97701e-07
1.25747e-06
2.552e-05
4.5014e-07
9.81384e-07
2.47843e-05
4.06143e-07
7.93055e-07
2.41787e-05
3.66443e-07
6.574e-07
2.36699e-05
3.31047e-07
5.55667e-07
2.32357e-05
2.99626e-07
4.77018e-07
2.286e-05
2.71732e-07
4.14725e-07
2.25314e-05
2.46895e-07
3.64392e-07
2.22411e-05
2.24677e-07
3.23034e-07
2.19827e-05
2.04677e-07
2.88555e-07
2.1751e-05
1.86533e-07
2.59436e-07
2.15419e-05
1.69905e-07
2.34543e-07
2.13524e-05
1.54457e-07
2.13009e-07
2.11798e-05
1.39838e-07
1.94156e-07
2.1022e-05
1.2567e-07
1.77434e-07
2.08774e-05
1.11541e-07
1.62402e-07
2.07445e-05
9.70198e-08
1.48702e-07
2.06221e-05
8.16806e-08
1.36045e-07
2.0509e-05
6.51493e-08
1.24213e-07
2.04043e-05
4.71592e-08
1.13048e-07
2.0307e-05
2.7611e-08
1.02448e-07
2.02162e-05
6.62619e-09
9.23601e-08
2.01312e-05
-1.54197e-08
8.27725e-08
2.00512e-05
-3.78917e-08
7.37036e-08
1.99758e-05
-5.99222e-08
6.5194e-08
1.99046e-05
-8.04628e-08
5.72885e-08
1.98373e-05
-9.83814e-08
5.00223e-08
1.97742e-05
-1.12531e-07
4.34195e-08
1.97152e-05
-1.2186e-07
3.74995e-08
1.96611e-05
-1.25543e-07
3.21824e-08
1.96117e-05
-1.2248e-07
2.7726e-08
1.95701e-05
-1.13918e-07
2.25007e-08
1.95306e-05
-9.344e-08
2.16344e-08
-8.25313e-08
2.65725e-08
7.70866e-05
2.69006e-07
8.96444e-05
4.77072e-05
4.56065e-07
2.94742e-05
3.62416e-05
5.26896e-07
1.15623e-05
3.16757e-05
5.36101e-07
4.65387e-06
2.91969e-05
5.15219e-07
2.55554e-06
2.75768e-05
4.80356e-07
1.6864e-06
2.63951e-05
4.40391e-07
1.23897e-06
2.54816e-05
4.00208e-07
9.63471e-07
2.47494e-05
3.62221e-07
7.76114e-07
2.41468e-05
3.27442e-07
6.41612e-07
2.36406e-05
2.96128e-07
5.41083e-07
2.32085e-05
2.68156e-07
4.63606e-07
2.28346e-05
2.43227e-07
4.02408e-07
2.25074e-05
2.20984e-07
3.53073e-07
2.22184e-05
2.01069e-07
3.1261e-07
2.1961e-05
1.8314e-07
2.78925e-07
2.17302e-05
1.66881e-07
2.50506e-07
2.15218e-05
1.51991e-07
2.26231e-07
2.13329e-05
1.38172e-07
2.05242e-07
2.11607e-05
1.25118e-07
1.86868e-07
2.10033e-05
1.12503e-07
1.70572e-07
2.0859e-05
9.99805e-08
1.55917e-07
2.07263e-05
8.71914e-08
1.4255e-07
2.0604e-05
7.37875e-08
1.30185e-07
2.04911e-05
5.94664e-08
1.18602e-07
2.03866e-05
4.40166e-08
1.07642e-07
2.02896e-05
2.7365e-08
9.71969e-08
2.01994e-05
9.61722e-09
8.72087e-08
2.01152e-05
-8.91471e-09
7.76609e-08
2.00365e-05
-2.77089e-08
6.85635e-08
1.99627e-05
-4.6055e-08
5.9953e-08
1.98934e-05
-6.30982e-08
5.1875e-08
1.98286e-05
-7.79091e-08
4.43753e-08
1.97681e-05
-8.95632e-08
3.74899e-08
1.97122e-05
-9.71625e-08
3.12583e-08
1.96612e-05
-1.00169e-07
2.5627e-08
1.96152e-05
-9.73956e-08
2.08984e-08
1.95768e-05
-9.089e-08
1.54008e-08
1.95415e-05
-7.34553e-08
1.52813e-08
-6.80484e-08
1.34718e-08
7.7075e-05
2.11936e-07
8.96488e-05
4.76803e-05
3.65206e-07
2.94855e-05
3.62044e-05
4.27613e-07
1.15751e-05
3.16333e-05
4.39345e-07
4.66786e-06
2.91524e-05
4.25249e-07
2.57086e-06
2.75322e-05
3.98254e-07
1.70232e-06
2.63516e-05
3.66059e-07
1.25492e-06
2.54398e-05
3.33041e-07
9.79009e-07
2.47096e-05
3.01477e-07
7.90967e-07
2.4109e-05
2.72399e-07
6.55621e-07
2.36048e-05
2.46137e-07
5.54173e-07
2.31745e-05
2.22651e-07
4.75768e-07
2.28024e-05
2.01721e-07
4.1367e-07
2.24768e-05
1.83061e-07
3.63491e-07
2.21893e-05
1.6637e-07
3.22251e-07
2.19332e-05
1.51359e-07
2.87857e-07
2.17035e-05
1.37756e-07
2.58802e-07
2.14962e-05
1.25303e-07
2.33957e-07
2.13082e-05
1.13749e-07
2.1246e-07
2.11368e-05
1.02836e-07
1.93635e-07
2.09801e-05
9.22951e-08
1.76937e-07
2.08363e-05
8.18448e-08
1.61928e-07
2.07041e-05
7.11958e-08
1.48245e-07
2.05822e-05
6.00709e-08
1.35603e-07
2.04697e-05
4.8232e-08
1.23776e-07
2.03656e-05
3.55128e-08
1.12604e-07
2.02691e-05
2.18579e-08
1.01981e-07
2.01795e-05
7.35436e-09
9.18489e-08
2.00961e-05
-7.74956e-09
8.21938e-08
2.00184e-05
-2.3038e-08
7.30319e-08
1.99459e-05
-3.79453e-08
6.44039e-08
1.98783e-05
-5.17907e-08
5.63573e-08
1.98152e-05
-6.38257e-08
4.89375e-08
1.97568e-05
-7.33197e-08
4.21737e-08
1.97031e-05
-7.95131e-08
3.61e-08
1.96543e-05
-8.20608e-08
3.06468e-08
1.96106e-05
-7.97499e-08
2.60766e-08
1.9574e-05
-7.49007e-08
2.06234e-08
1.95397e-05
-5.99299e-08
2.07978e-08
-5.74403e-08
1.409e-08
7.70659e-05
1.63594e-07
8.96492e-05
4.76591e-05
2.84858e-07
2.94871e-05
3.61757e-05
3.37748e-07
1.15733e-05
3.16013e-05
3.50607e-07
4.66307e-06
2.91199e-05
3.42384e-07
2.56427e-06
2.75008e-05
3.22906e-07
1.69443e-06
2.63223e-05
2.98436e-07
1.2462e-06
2.54128e-05
2.72658e-07
9.69893e-07
2.46849e-05
2.47589e-07
7.81779e-07
2.40864e-05
2.2422e-07
6.46593e-07
2.35842e-05
2.02933e-07
5.45464e-07
2.31556e-05
1.83777e-07
4.67473e-07
2.27848e-05
1.66631e-07
4.05841e-07
2.24605e-05
1.51296e-07
3.56142e-07
2.21739e-05
1.37549e-07
3.15378e-07
2.19187e-05
1.25167e-07
2.81442e-07
2.16897e-05
1.13936e-07
2.52817e-07
2.14829e-05
1.0365e-07
2.28372e-07
2.12953e-05
9.41079e-08
2.07243e-07
2.11243e-05
8.51036e-08
1.88753e-07
2.09678e-05
7.64247e-08
1.72362e-07
2.08242e-05
6.78491e-08
1.57628e-07
2.0692e-05
5.91526e-08
1.44193e-07
2.05702e-05
5.01205e-08
1.31769e-07
2.04578e-05
4.05704e-08
1.20131e-07
2.03538e-05
3.03767e-08
1.09116e-07
2.02575e-05
1.94981e-08
9.86154e-08
2.01683e-05
8.00312e-09
8.8569e-08
2.00855e-05
-3.91414e-09
7.89577e-08
2.00086e-05
-1.59329e-08
6.97973e-08
1.99371e-05
-2.76154e-08
6.11229e-08
1.98708e-05
-3.84378e-08
5.29845e-08
1.98094e-05
-4.7819e-08
4.54315e-08
1.97528e-05
-5.52025e-08
3.85037e-08
1.9701e-05
-5.99837e-08
3.22395e-08
1.96543e-05
-6.19643e-08
2.65943e-08
1.96128e-05
-6.00876e-08
2.18368e-08
1.95782e-05
-5.65629e-08
1.62207e-08
1.95464e-05
-4.48779e-08
1.68191e-08
-4.41174e-08
5.54313e-09
7.70605e-05
1.18922e-07
8.96509e-05
4.76453e-05
2.08342e-07
2.94917e-05
3.61555e-05
2.49019e-07
1.15785e-05
3.15776e-05
2.59882e-07
4.66868e-06
2.90944e-05
2.54853e-07
2.5707e-06
2.74748e-05
2.40965e-07
1.7015e-06
2.62966e-05
2.22989e-07
1.25368e-06
2.53879e-05
2.03786e-07
9.77577e-07
2.4661e-05
1.84969e-07
7.8948e-07
2.40637e-05
1.67357e-07
6.54164e-07
2.35626e-05
1.51288e-07
5.52795e-07
2.31351e-05
1.36824e-07
4.7449e-07
2.27653e-05
1.23888e-07
4.12501e-07
2.24418e-05
1.12333e-07
3.62425e-07
2.21561e-05
1.01991e-07
3.2128e-07
2.19016e-05
9.26882e-08
2.86974e-07
2.16733e-05
8.42612e-08
2.57994e-07
2.14672e-05
7.65506e-08
2.33218e-07
2.12801e-05
6.94026e-08
2.11783e-07
2.11095e-05
6.26623e-08
1.93014e-07
2.09534e-05
5.61701e-08
1.76369e-07
2.08101e-05
4.97626e-08
1.61407e-07
2.06782e-05
4.32747e-08
1.47769e-07
2.05566e-05
3.65502e-08
1.35165e-07
2.04444e-05
2.94565e-08
1.23369e-07
2.03406e-05
2.19018e-08
1.12217e-07
2.02447e-05
1.38566e-08
1.01601e-07
2.01558e-05
5.37002e-09
9.1458e-08
2.00736e-05
-3.41815e-09
8.17754e-08
1.99973e-05
-1.22751e-08
7.25655e-08
1.99267e-05
-2.08839e-08
6.3872e-08
1.98614e-05
-2.88628e-08
5.57395e-08
1.98012e-05
-3.57864e-08
4.822e-08
1.97459e-05
-4.12512e-08
4.13504e-08
1.96955e-05
-4.47991e-08
3.51607e-08
1.96503e-05
-4.63165e-08
2.96087e-08
1.96102e-05
-4.49329e-08
2.4925e-08
1.95768e-05
-4.2486e-08
1.93353e-08
1.95454e-05
-3.35671e-08
2.00747e-08
-3.34956e-08
5.67971e-09
7.70565e-05
7.79157e-08
8.96512e-05
4.7635e-05
1.36929e-07
2.94929e-05
3.61408e-05
1.64866e-07
1.15784e-05
3.15604e-05
1.7295e-07
4.66733e-06
2.90763e-05
1.70475e-07
2.56847e-06
2.74569e-05
1.61873e-07
1.6985e-06
2.62795e-05
1.50337e-07
1.25008e-06
2.53719e-05
1.37802e-07
9.73542e-07
2.46463e-05
1.25386e-07
7.85179e-07
2.40502e-05
1.13676e-07
6.49738e-07
2.35502e-05
1.02927e-07
5.48357e-07
2.31237e-05
9.32073e-08
4.70126e-07
2.27549e-05
8.44811e-08
4.0827e-07
2.24322e-05
7.66627e-08
3.58367e-07
2.21471e-05
6.96467e-08
3.17419e-07
2.18931e-05
6.33235e-08
2.83323e-07
2.16653e-05
5.75862e-08
2.54556e-07
2.14595e-05
5.2331e-08
2.29987e-07
2.12727e-05
4.74572e-08
2.08753e-07
2.11023e-05
4.28622e-08
1.90173e-07
2.09463e-05
3.84427e-08
1.73705e-07
2.08031e-05
3.40907e-08
1.58908e-07
2.06713e-05
2.96993e-08
1.45421e-07
2.05497e-05
2.51664e-08
1.3295e-07
2.04375e-05
2.04062e-08
1.21274e-07
2.03338e-05
1.53587e-08
1.10222e-07
2.0238e-05
1.00055e-08
9.96849e-08
2.01493e-05
4.37792e-09
8.95998e-08
2.00674e-05
-1.43304e-09
7.99497e-08
1.99917e-05
-7.27592e-09
7.07485e-08
1.99217e-05
-1.29435e-08
6.20343e-08
1.98572e-05
-1.81874e-08
5.38564e-08
1.97978e-05
-2.2729e-08
4.62677e-08
1.97436e-05
-2.63077e-08
3.931e-08
1.96944e-05
-2.86195e-08
3.30179e-08
1.96503e-05
-2.96092e-08
2.73606e-08
1.96115e-05
-2.8683e-08
2.25713e-08
1.95793e-05
-2.71428e-08
1.68979e-08
1.95492e-05
-2.13481e-08
1.78551e-08
-2.15875e-08
8.49208e-10
7.70544e-05
3.84662e-08
8.96517e-05
4.76291e-05
6.76205e-08
2.94946e-05
3.61318e-05
8.17626e-08
1.15803e-05
3.15496e-05
8.58598e-08
4.66932e-06
2.90645e-05
8.47265e-08
2.57081e-06
2.74448e-05
8.04656e-08
1.70115e-06
2.62674e-05
7.4695e-08
1.25298e-06
2.53602e-05
6.83978e-08
9.76634e-07
2.46351e-05
6.21472e-08
7.88381e-07
2.40395e-05
5.62487e-08
6.52979e-07
2.354e-05
5.08376e-08
5.51577e-07
2.3114e-05
4.59514e-08
4.73275e-07
2.27456e-05
4.15719e-08
4.11313e-07
2.24233e-05
3.76559e-08
3.61281e-07
2.21386e-05
3.41494e-08
3.20189e-07
2.1885e-05
3.09953e-08
2.85941e-07
2.16575e-05
2.81384e-08
2.57021e-07
2.1452e-05
2.55257e-08
2.32305e-07
2.12654e-05
2.31053e-08
2.10931e-07
2.10952e-05
2.08257e-08
1.9222e-07
2.09394e-05
1.86346e-08
1.75632e-07
2.07963e-05
1.64789e-08
1.60727e-07
2.06645e-05
1.43052e-08
1.47141e-07
2.0543e-05
1.20633e-08
1.34586e-07
2.04309e-05
9.71042e-09
1.22834e-07
2.03273e-05
7.21751e-09
1.11717e-07
2.02316e-05
4.57401e-09
1.01123e-07
2.01432e-05
1.79601e-09
9.09906e-08
2.00616e-05
-1.07251e-09
8.13028e-08
1.99862e-05
-3.95771e-09
7.20757e-08
1.99166e-05
-6.75772e-09
6.33468e-08
1.98526e-05
-9.35057e-09
5.51644e-08
1.97939e-05
-1.1598e-08
4.75815e-08
1.97403e-05
-1.33719e-08
4.06425e-08
1.96919e-05
-1.45189e-08
3.4376e-08
1.96485e-05
-1.5016e-08
2.87529e-08
1.96104e-05
-1.45521e-08
2.39876e-08
1.95787e-05
-1.37991e-08
1.83222e-08
1.95489e-05
-1.08361e-08
1.93332e-08
-1.0991e-08
7.87882e-10
7.70533e-05
-1.39415e-14
8.96518e-05
4.76259e-05
1.46498e-13
2.9495e-05
3.61273e-05
2.5237e-13
1.15804e-05
3.15442e-05
2.66229e-13
4.66896e-06
2.90587e-05
5.02528e-13
2.57016e-06
2.7439e-05
7.85199e-13
1.70023e-06
2.62619e-05
7.39019e-13
1.25181e-06
2.5355e-05
1.01963e-12
9.75268e-07
2.46303e-05
1.34323e-12
7.86872e-07
2.40351e-05
1.43632e-12
6.51374e-07
2.3536e-05
1.81486e-12
5.49918e-07
2.31104e-05
2.21073e-12
4.71599e-07
2.27423e-05
2.83702e-12
4.09646e-07
2.24203e-05
3.62137e-12
3.59644e-07
2.21359e-05
4.48413e-12
3.18596e-07
2.18825e-05
5.24203e-12
2.84401e-07
2.16551e-05
6.37588e-12
2.55543e-07
2.14497e-05
7.58086e-12
2.3089e-07
2.12632e-05
8.56333e-12
2.0958e-07
2.10931e-05
9.38633e-12
1.90934e-07
2.09373e-05
9.92906e-12
1.74411e-07
2.07942e-05
9.84198e-12
1.59568e-07
2.06625e-05
8.99945e-12
1.46044e-07
2.0541e-05
7.39969e-12
1.33548e-07
2.04288e-05
4.98063e-12
1.21852e-07
2.03252e-05
1.71509e-12
1.10785e-07
2.02296e-05
-1.64798e-12
1.0024e-07
2.01412e-05
-5.35745e-12
9.01484e-08
2.00597e-05
-8.66141e-12
8.04955e-08
1.99844e-05
-1.10833e-11
7.12925e-08
1.99151e-05
-1.28246e-11
6.2579e-08
1.98514e-05
-1.30414e-11
5.44038e-08
1.9793e-05
-1.17403e-11
4.68184e-08
1.97397e-05
-8.87386e-12
3.98671e-08
1.96916e-05
-4.69178e-12
3.35825e-08
1.96487e-05
3.69159e-13
2.79411e-08
1.9611e-05
5.97114e-12
2.31511e-08
1.95797e-05
1.25625e-11
1.74742e-08
1.95503e-05
1.63016e-11
1.85529e-08
2.7047e-11
-8.44777e-10
7.70533e-05
-3.84658e-08
8.96518e-05
4.76259e-05
-6.76203e-08
2.9495e-05
3.61273e-05
-8.1762e-08
1.15804e-05
3.15442e-05
-8.58589e-08
4.66896e-06
2.90587e-05
-8.47256e-08
2.57016e-06
2.7439e-05
-8.04646e-08
1.70023e-06
2.62619e-05
-7.46936e-08
1.25181e-06
2.5355e-05
-6.83961e-08
9.75268e-07
2.46303e-05
-6.21451e-08
7.86872e-07
2.40351e-05
-5.6246e-08
6.51375e-07
2.3536e-05
-5.08343e-08
5.49918e-07
2.31104e-05
-4.59466e-08
4.71599e-07
2.27423e-05
-4.15661e-08
4.09647e-07
2.24203e-05
-3.76489e-08
3.59644e-07
2.21359e-05
-3.41407e-08
3.18596e-07
2.18825e-05
-3.09848e-08
2.84402e-07
2.16551e-05
-2.81258e-08
2.55542e-07
2.14497e-05
-2.55107e-08
2.3089e-07
2.12632e-05
-2.30882e-08
2.0958e-07
2.10931e-05
-2.08069e-08
1.90934e-07
2.09373e-05
-1.86151e-08
1.74411e-07
2.07942e-05
-1.64593e-08
1.59567e-07
2.06625e-05
-1.42876e-08
1.46044e-07
2.0541e-05
-1.20488e-08
1.33548e-07
2.04288e-05
-9.7006e-09
1.21852e-07
2.03252e-05
-7.21347e-09
1.10785e-07
2.02296e-05
-4.57702e-09
1.00239e-07
2.01412e-05
-1.80596e-09
9.01488e-08
2.00597e-05
1.0563e-09
8.04933e-08
1.99844e-05
3.93664e-09
7.12916e-08
1.99151e-05
6.73373e-09
6.25776e-08
1.98514e-05
9.32599e-09
5.44029e-08
1.9793e-05
1.15763e-08
4.68179e-08
1.97397e-05
1.33555e-08
3.9867e-08
1.96916e-05
1.45106e-08
3.35826e-08
1.96487e-05
1.50177e-08
2.7941e-08
1.9611e-05
1.45646e-08
2.31515e-08
1.95797e-05
1.38246e-08
1.74743e-08
1.95503e-05
1.08696e-08
1.85529e-08
1.10444e-08
-8.41258e-10
7.70544e-05
-7.79156e-08
8.96517e-05
4.76291e-05
-1.36929e-07
2.94946e-05
3.61318e-05
-1.64866e-07
1.15803e-05
3.15496e-05
-1.72949e-07
4.66932e-06
2.90645e-05
-1.70474e-07
2.57081e-06
2.74448e-05
-1.61872e-07
1.70115e-06
2.62674e-05
-1.50336e-07
1.25298e-06
2.53602e-05
-1.37801e-07
9.76633e-07
2.46351e-05
-1.25384e-07
7.88381e-07
2.40395e-05
-1.13673e-07
6.52979e-07
2.354e-05
-1.02923e-07
5.51577e-07
2.3114e-05
-9.32029e-08
4.73276e-07
2.27456e-05
-8.44755e-08
4.11313e-07
2.24233e-05
-7.66556e-08
3.61281e-07
2.21386e-05
-6.96379e-08
3.20188e-07
2.1885e-05
-6.33127e-08
2.8594e-07
2.16575e-05
-5.75735e-08
2.57022e-07
2.1452e-05
-5.23165e-08
2.32306e-07
2.12654e-05
-4.74406e-08
2.1093e-07
2.10952e-05
-4.28443e-08
1.9222e-07
2.09394e-05
-3.84236e-08
1.75632e-07
2.07963e-05
-3.40719e-08
1.60726e-07
2.06645e-05
-2.96819e-08
1.4714e-07
2.0543e-05
-2.5152e-08
1.34585e-07
2.04309e-05
-2.0396e-08
1.22831e-07
2.03273e-05
-1.53546e-08
1.11714e-07
2.02316e-05
-1.00074e-08
1.01121e-07
2.01432e-05
-4.38609e-09
9.09885e-08
2.00616e-05
1.41876e-09
8.13013e-08
1.99862e-05
7.25691e-09
7.20741e-08
1.99166e-05
1.29223e-08
6.33439e-08
1.98526e-05
1.81663e-08
5.51631e-08
1.97939e-05
2.27104e-08
4.75813e-08
1.97403e-05
2.62943e-08
4.06413e-08
1.96919e-05
2.86136e-08
3.43754e-08
1.96485e-05
2.96129e-08
2.87543e-08
1.96104e-05
2.86973e-08
2.39886e-08
1.95787e-05
2.71688e-08
1.8325e-08
1.95489e-05
2.13819e-08
1.93355e-08
2.16396e-08
7.9732e-10
7.70565e-05
-1.18922e-07
8.96512e-05
4.7635e-05
-2.08341e-07
2.94929e-05
3.61408e-05
-2.49018e-07
1.15784e-05
3.15604e-05
-2.59882e-07
4.66733e-06
2.90763e-05
-2.54853e-07
2.56847e-06
2.74569e-05
-2.40964e-07
1.6985e-06
2.62795e-05
-2.22987e-07
1.25008e-06
2.53719e-05
-2.03784e-07
9.73542e-07
2.46463e-05
-1.84967e-07
7.85179e-07
2.40502e-05
-1.67355e-07
6.49738e-07
2.35502e-05
-1.51284e-07
5.48357e-07
2.31237e-05
-1.3682e-07
4.70125e-07
2.27549e-05
-1.23883e-07
4.08269e-07
2.24322e-05
-1.12327e-07
3.58367e-07
2.21471e-05
-1.01983e-07
3.17419e-07
2.18931e-05
-9.26782e-08
2.83323e-07
2.16653e-05
-8.42489e-08
2.54555e-07
2.14595e-05
-7.65364e-08
2.29986e-07
2.12727e-05
-6.93868e-08
2.08751e-07
2.11023e-05
-6.26448e-08
1.90172e-07
2.09463e-05
-5.61519e-08
1.73704e-07
2.08031e-05
-4.97446e-08
1.58907e-07
2.06713e-05
-4.32577e-08
1.45419e-07
2.05497e-05
-3.65361e-08
1.32949e-07
2.04375e-05
-2.94464e-08
1.21273e-07
2.03338e-05
-2.18963e-08
1.1022e-07
2.0238e-05
-1.38569e-08
9.96815e-08
2.01494e-05
-5.37614e-09
8.95964e-08
2.00674e-05
3.40682e-09
7.99476e-08
1.99917e-05
1.22601e-08
7.07456e-08
1.99217e-05
2.0867e-08
6.20328e-08
1.98572e-05
2.88461e-08
5.38548e-08
1.97978e-05
3.57723e-08
4.62659e-08
1.97436e-05
4.12419e-08
3.93093e-08
1.96944e-05
4.4797e-08
3.30184e-08
1.96503e-05
4.63229e-08
2.7363e-08
1.96115e-05
4.49491e-08
2.25738e-08
1.95792e-05
4.25125e-08
1.69005e-08
1.95492e-05
3.36008e-08
1.78583e-08
3.35455e-08
8.63711e-10
7.70605e-05
-1.63593e-07
8.96509e-05
4.76453e-05
-2.84857e-07
2.94917e-05
3.61555e-05
-3.37747e-07
1.15785e-05
3.15776e-05
-3.50606e-07
4.66868e-06
2.90944e-05
-3.42384e-07
2.57071e-06
2.74748e-05
-3.22905e-07
1.7015e-06
2.62966e-05
-2.98435e-07
1.25368e-06
2.53879e-05
-2.72657e-07
9.77577e-07
2.4661e-05
-2.47588e-07
7.8948e-07
2.40637e-05
-2.24218e-07
6.54164e-07
2.35626e-05
-2.0293e-07
5.52795e-07
2.31351e-05
-1.83773e-07
4.74491e-07
2.27653e-05
-1.66626e-07
4.12501e-07
2.24418e-05
-1.5129e-07
3.62425e-07
2.21561e-05
-1.37542e-07
3.21279e-07
2.19016e-05
-1.25158e-07
2.86973e-07
2.16733e-05
-1.13925e-07
2.57995e-07
2.14672e-05
-1.03638e-07
2.33218e-07
2.12801e-05
-9.40931e-08
2.11782e-07
2.11095e-05
-8.50874e-08
1.93014e-07
2.09534e-05
-7.64075e-08
1.76369e-07
2.08101e-05
-6.78319e-08
1.61406e-07
2.06782e-05
-5.91363e-08
1.47768e-07
2.05566e-05
-5.01063e-08
1.35163e-07
2.04444e-05
-4.05596e-08
1.23367e-07
2.03406e-05
-3.03701e-08
1.12214e-07
2.02447e-05
-1.94961e-08
1.01596e-07
2.01559e-05
-8.00607e-09
9.14548e-08
2.00736e-05
3.90722e-09
8.17705e-08
1.99974e-05
1.59228e-08
7.25626e-08
1.99268e-05
2.76039e-08
6.38689e-08
1.98614e-05
3.84268e-08
5.57362e-08
1.98012e-05
4.78106e-08
4.82193e-08
1.97459e-05
5.51988e-08
4.13508e-08
1.96955e-05
5.99863e-08
3.5163e-08
1.96503e-05
6.19742e-08
2.96104e-08
1.96102e-05
6.01063e-08
2.49294e-08
1.95768e-05
5.65901e-08
1.93392e-08
1.95454e-05
4.49118e-08
2.00801e-08
4.41644e-08
5.69884e-09
7.70659e-05
-2.11936e-07
8.96492e-05
4.76591e-05
-3.65206e-07
2.94871e-05
3.61757e-05
-4.27612e-07
1.15733e-05
3.16013e-05
-4.39345e-07
4.66307e-06
2.91199e-05
-4.25248e-07
2.56427e-06
2.75008e-05
-3.98253e-07
1.69443e-06
2.63223e-05
-3.66058e-07
1.2462e-06
2.54128e-05
-3.3304e-07
9.69893e-07
2.46849e-05
-3.01475e-07
7.81778e-07
2.40864e-05
-2.72397e-07
6.46593e-07
2.35842e-05
-2.46135e-07
5.45464e-07
2.31556e-05
-2.22647e-07
4.67473e-07
2.27848e-05
-2.01716e-07
4.0584e-07
2.24605e-05
-1.83055e-07
3.56142e-07
2.21739e-05
-1.66363e-07
3.15377e-07
2.19187e-05
-1.51351e-07
2.81443e-07
2.16897e-05
-1.37746e-07
2.52818e-07
2.14829e-05
-1.25291e-07
2.28372e-07
2.12953e-05
-1.13736e-07
2.07242e-07
2.11243e-05
-1.02821e-07
1.88753e-07
2.09678e-05
-9.22795e-08
1.7236e-07
2.08242e-05
-8.18287e-08
1.57626e-07
2.06921e-05
-7.11802e-08
1.4419e-07
2.05702e-05
-6.00571e-08
1.31765e-07
2.04578e-05
-4.82204e-08
1.20128e-07
2.03538e-05
-3.55041e-08
1.09112e-07
2.02575e-05
-2.18531e-08
9.86112e-08
2.01683e-05
-7.35307e-09
8.85644e-08
2.00855e-05
7.74772e-09
7.89534e-08
2.00086e-05
2.30339e-08
6.97931e-08
1.99372e-05
3.79401e-08
6.11199e-08
1.98708e-05
5.17862e-08
5.29821e-08
1.98094e-05
6.3824e-08
4.54315e-08
1.97528e-05
7.3322e-08
3.85037e-08
1.9701e-05
7.95207e-08
3.22406e-08
1.96543e-05
8.20747e-08
2.65967e-08
1.96128e-05
7.97708e-08
2.18418e-08
1.95782e-05
7.49286e-08
1.62258e-08
1.95463e-05
5.99639e-08
1.68262e-08
5.74834e-08
5.56491e-09
7.7075e-05
-2.69006e-07
8.96488e-05
4.76803e-05
-4.56064e-07
2.94855e-05
3.62044e-05
-5.26896e-07
1.15751e-05
3.16333e-05
-5.36101e-07
4.66786e-06
2.91524e-05
-5.15219e-07
2.57086e-06
2.75322e-05
-4.80356e-07
1.70232e-06
2.63516e-05
-4.4039e-07
1.25492e-06
2.54398e-05
-4.00207e-07
9.79009e-07
2.47096e-05
-3.62219e-07
7.90968e-07
2.4109e-05
-3.27439e-07
6.55619e-07
2.36048e-05
-2.96126e-07
5.54172e-07
2.31745e-05
-2.68152e-07
4.75768e-07
2.28024e-05
-2.43223e-07
4.13671e-07
2.24768e-05