/*--------------------------------*- C++ -*----------------------------------*\
| =========                 |                                                 |
| \\      /  F ield         | OpenFOAM: The Open Source CFD Toolbox           |
|  \\    /   O peration     | Version:  5.0                                   |
|   \\  /    A nd           | Web:      www.OpenFOAM.org                      |
|    \\/     M anipulation  |                                                 |
\*---------------------------------------------------------------------------*/
FoamFile
{
    version     2.0;
    format      ascii;
    class       volScalarField;
    location    "200/porous";
    object      T;
}
// * * * * * * * * * * * * * * * * * * * * * * * * * * * * * * * * * * * * * //

dimensions      [0 0 0 1 0 0 0];

internalField   nonuniform List<scalar> 
36000
(
400
400
400
400
399.999
399.574
399.192
398.839
398.504
398.181
397.867
397.559
397.256
396.956
396.66
396.366
396.074
395.784
395.496
395.212
394.93
394.65
394.372
394.095
393.82
393.547
393.277
393.01
392.745
392.483
392.222
391.964
391.707
391.451
391.199
391.709
392.027
392.232
392.353
392.404
400
400
400
400
399.999
399.624
399.288
398.98
398.69
398.413
398.146
397.886
397.633
397.384
397.139
396.897
396.658
396.422
396.189
395.958
395.731
395.506
395.283
395.061
394.842
394.627
394.415
394.206
394.001
393.8
393.604
393.414
393.23
393.049
392.874
393.23
393.476
393.652
393.777
393.859
400
400
400
400
399.999
399.631
399.303
399.004
398.725
398.46
398.207
397.962
397.725
397.494
397.267
397.044
396.825
396.61
396.398
396.19
395.986
395.784
395.584
395.387
395.193
395.003
394.817
394.634
394.454
394.278
394.106
393.936
393.77
393.607
393.448
393.775
394.006
394.175
394.301
394.39
400
400
400
400
399.999
399.629
399.302
399.004
398.726
398.463
398.212
397.971
397.737
397.51
397.287
397.069
396.856
396.646
396.44
396.238
396.04
395.845
395.653
395.463
395.277
395.094
394.914
394.738
394.565
394.393
394.225
394.06
393.897
393.738
393.581
393.901
394.128
394.294
394.418
394.508
400
400
400
400
399.999
399.629
399.301
399.003
398.725
398.463
398.212
397.971
397.738
397.511
397.289
397.072
396.859
396.651
396.446
396.246
396.049
395.856
395.665
395.477
395.293
395.111
394.934
394.759
394.587
394.417
394.25
394.086
393.925
393.767
393.612
393.931
394.156
394.322
394.447
394.536
400
400
400
400
399.999
399.628
399.299
399
398.722
398.459
398.208
397.967
397.733
397.505
397.283
397.065
396.852
396.644
396.439
396.239
396.042
395.848
395.657
395.47
395.285
395.104
394.927
394.752
394.581
394.411
394.244
394.081
393.92
393.762
393.608
393.927
394.152
394.318
394.442
394.532
400
400
400
400
399.999
399.627
399.298
398.999
398.721
398.458
398.206
397.965
397.73
397.502
397.279
397.061
396.848
396.639
396.435
396.233
396.036
395.842
395.651
395.464
395.279
395.098
394.92
394.746
394.574
394.405
394.238
394.075
393.915
393.758
393.604
393.923
394.149
394.315
394.44
394.53
400
400
400
400
399.999
399.626
399.297
398.997
398.719
398.455
398.204
397.961
397.726
397.497
397.274
397.056
396.842
396.633
396.427
396.226
396.028
395.833
395.642
395.454
395.27
395.088
394.91
394.735
394.564
394.394
394.228
394.064
393.905
393.748
393.595
393.914
394.14
394.307
394.432
394.522
400
400
400
400
399.999
399.626
399.296
398.997
398.718
398.454
398.202
397.96
397.725
397.495
397.271
397.053
396.839
396.629
396.423
396.221
396.022
395.828
395.636
395.448
395.264
395.082
394.904
394.729
394.557
394.388
394.221
394.058
393.899
393.743
393.59
393.909
394.135
394.303
394.428
394.519
400
400
400
400
399.999
399.625
399.296
398.996
398.717
398.453
398.201
397.958
397.722
397.493
397.268
397.049
396.835
396.624
396.418
396.215
396.016
395.82
395.629
395.441
395.256
395.075
394.896
394.721
394.549
394.379
394.213
394.05
393.891
393.735
393.582
393.902
394.128
394.296
394.422
394.513
400
400
400
400
399.999
399.626
399.296
398.996
398.717
398.453
398.201
397.958
397.722
397.492
397.268
397.048
396.833
396.622
396.414
396.211
396.012
395.816
395.624
395.436
395.251
395.07
394.891
394.716
394.544
394.374
394.208
394.045
393.886
393.73
393.578
393.898
394.125
394.293
394.419
394.511
400
400
400
400
399.999
399.626
399.296
398.996
398.716
398.452
398.2
397.957
397.721
397.491
397.266
397.046
396.831
396.619
396.411
396.208
396.009
395.812
395.619
395.431
395.246
395.065
394.887
394.711
394.539
394.369
394.203
394.04
393.881
393.725
393.574
393.894
394.12
394.289
394.415
394.507
400
400
400
400
399.999
399.626
399.296
398.996
398.716
398.452
398.199
397.956
397.72
397.49
397.266
397.046
396.83
396.618
396.41
396.208
396.008
395.812
395.619
395.43
395.245
395.064
394.885
394.71
394.538
394.368
394.202
394.039
393.88
393.724
393.573
393.893
394.12
394.288
394.415
394.507
400
400
400
400
399.999
399.626
399.297
398.996
398.716
398.451
398.198
397.955
397.719
397.489
397.264
397.044
396.829
396.617
396.41
396.207
396.008
395.812
395.619
395.43
395.245
395.063
394.885
394.709
394.537
394.368
394.201
394.038
393.879
393.724
393.572
393.892
394.119
394.287
394.414
394.507
400
400
400
400
399.999
399.627
399.297
398.996
398.716
398.451
398.197
397.954
397.718
397.488
397.263
397.043
396.828
396.616
396.409
396.207
396.008
395.812
395.619
395.43
395.245
395.063
394.885
394.71
394.538
394.368
394.202
394.039
393.88
393.724
393.572
393.892
394.119
394.288
394.415
394.507
400
400
400
400
399.999
399.627
399.298
398.997
398.716
398.45
398.197
397.953
397.716
397.487
397.262
397.042
396.827
396.615
396.409
396.206
396.008
395.812
395.619
395.43
395.245
395.064
394.886
394.711
394.539
394.37
394.203
394.04
393.881
393.725
393.572
393.892
394.119
394.288
394.415
394.508
400
400
400
400
399.999
399.628
399.298
398.997
398.716
398.45
398.197
397.952
397.716
397.486
397.262
397.042
396.827
396.615
396.408
396.206
396.007
395.811
395.618
395.43
395.245
395.063
394.886
394.711
394.54
394.371
394.205
394.042
393.882
393.726
393.572
393.892
394.119
394.288
394.414
394.507
400
400
400
400
399.999
399.628
399.298
398.997
398.717
398.451
398.197
397.953
397.716
397.486
397.262
397.043
396.828
396.616
396.409
396.206
396.007
395.811
395.618
395.43
395.245
395.064
394.887
394.713
394.542
394.373
394.207
394.044
393.884
393.728
393.573
393.893
394.12
394.288
394.415
394.507
400
400
400
400
399.999
399.628
399.299
398.998
398.717
398.451
398.197
397.953
397.717
397.487
397.263
397.044
396.829
396.617
396.41
396.207
396.008
395.812
395.619
395.431
395.247
395.066
394.888
394.714
394.543
394.375
394.209
394.046
393.886
393.729
393.573
393.893
394.12
394.288
394.415
394.507
400
400
400
400
399.999
399.628
399.299
398.998
398.718
398.452
398.199
397.955
397.719
397.489
397.265
397.046
396.832
396.621
396.414
396.211
396.012
395.816
395.624
395.436
395.252
395.07
394.893
394.718
394.547
394.379
394.213
394.05
393.89
393.733
393.577
393.897
394.124
394.292
394.418
394.51
400
400
400
400
399.999
399.628
399.299
398.999
398.718
398.453
398.2
397.957
397.721
397.491
397.267
397.049
396.835
396.624
396.418
396.215
396.016
395.821
395.629
395.441
395.257
395.075
394.897
394.723
394.552
394.383
394.217
394.054
393.894
393.736
393.58
393.9
394.126
394.294
394.42
394.511
400
400
400
400
399.999
399.629
399.3
399
398.72
398.455
398.202
397.959
397.724
397.495
397.271
397.053
396.839
396.63
396.424
396.222
396.023
395.828
395.637
395.449
395.265
395.083
394.905
394.73
394.559
394.391
394.225
394.061
393.901
393.743
393.586
393.906
394.133
394.301
394.426
394.517
400
400
400
400
399.999
399.629
399.3
399.001
398.721
398.457
398.204
397.962
397.727
397.498
397.275
397.056
396.843
396.634
396.428
396.227
396.029
395.834
395.643
395.455
395.27
395.089
394.911
394.736
394.565
394.396
394.23
394.066
393.906
393.747
393.591
393.911
394.137
394.304
394.429
394.52
400
400
400
400
399.999
399.629
399.301
399.002
398.723
398.459
398.208
397.966
397.731
397.503
397.28
397.063
396.849
396.641
396.436
396.235
396.037
395.843
395.652
395.464
395.28
395.099
394.921
394.747
394.575
394.406
394.24
394.076
393.916
393.757
393.6
393.92
394.146
394.313
394.438
394.528
400
400
400
400
399.999
399.63
399.302
399.003
398.725
398.461
398.21
397.968
397.734
397.507
397.284
397.067
396.854
396.645
396.441
396.24
396.043
395.849
395.658
395.47
395.286
395.105
394.927
394.753
394.581
394.412
394.245
394.081
393.92
393.761
393.604
393.923
394.149
394.316
394.44
394.53
400
400
400
400
399.999
399.631
399.304
399.006
398.728
398.465
398.214
397.973
397.74
397.513
397.291
397.073
396.861
396.653
396.449
396.248
396.051
395.856
395.665
395.477
395.293
395.112
394.934
394.76
394.588
394.418
394.251
394.087
393.925
393.766
393.609
393.928
394.154
394.321
394.445
394.534
400
400
400
400
399.999
399.631
399.304
399.006
398.728
398.465
398.214
397.973
397.739
397.511
397.289
397.071
396.857
396.648
396.443
396.241
396.042
395.846
395.653
395.463
395.277
395.094
394.915
394.739
394.565
394.394
394.226
394.06
393.898
393.737
393.579
393.899
394.126
394.293
394.417
394.506
400
400
400
400
399.999
399.632
399.305
399.006
398.727
398.462
398.209
397.964
397.727
397.495
397.268
397.046
396.827
396.612
396.401
396.193
395.988
395.784
395.584
395.387
395.193
395.003
394.817
394.634
394.455
394.279
394.106
393.937
393.771
393.607
393.446
393.774
394.005
394.174
394.3
394.389
400
400
400
400
399.999
399.626
399.291
398.982
398.692
398.415
398.147
397.888
397.634
397.385
397.141
396.899
396.66
396.425
396.193
395.962
395.734
395.507
395.282
395.06
394.842
394.626
394.415
394.206
394.001
393.801
393.605
393.415
393.23
393.05
392.873
393.23
393.476
393.652
393.777
393.859
400
400
400
400
399.999
399.576
399.195
398.841
398.506
398.183
397.869
397.561
397.257
396.958
396.661
396.368
396.077
395.788
395.502
395.217
394.933
394.65
394.37
394.093
393.818
393.546
393.277
393.01
392.746
392.483
392.223
391.965
391.708
391.452
391.199
391.709
392.028
392.234
392.355
392.406
400
400
400
400
399.999
399.774
399.519
399.248
398.968
398.683
398.396
398.109
397.822
397.536
397.25
396.965
396.68
396.397
396.114
395.833
395.555
395.278
395.002
394.727
394.453
394.182
393.913
393.645
393.38
393.117
392.856
392.597
392.339
392.082
391.826
392.053
392.254
392.407
392.505
392.546
400
400
400
400
400
399.806
399.591
399.363
399.13
398.894
398.657
398.421
398.186
397.952
397.72
397.49
397.261
397.034
396.808
396.584
396.362
396.142
395.924
395.707
395.492
395.28
395.071
394.865
394.662
394.463
394.268
394.079
393.895
393.716
393.54
393.664
393.788
393.898
393.986
394.049
400
400
400
400
400
399.81
399.601
399.383
399.159
398.935
398.711
398.49
398.271
398.054
397.84
397.629
397.42
397.213
397.009
396.807
396.608
396.411
396.217
396.024
395.834
395.647
395.464
395.283
395.106
394.932
394.762
394.594
394.43
394.267
394.108
394.214
394.324
394.425
394.51
394.576
400
400
400
400
400
399.809
399.601
399.382
399.16
398.937
398.716
398.497
398.282
398.069
397.859
397.652
397.448
397.247
397.049
396.853
396.66
396.47
396.283
396.097
395.915
395.735
395.558
395.385
395.214
395.045
394.879
394.715
394.554
394.395
394.238
394.34
394.446
394.543
394.626
394.691
400
400
400
400
400
399.809
399.6
399.382
399.16
398.937
398.716
398.498
398.283
398.071
397.862
397.655
397.452
397.252
397.055
396.861
396.67
396.481
396.295
396.112
395.931
395.753
395.578
395.406
395.236
395.069
394.904
394.742
394.582
394.424
394.269
394.37
394.475
394.572
394.655
394.719
400
400
400
400
400
399.808
399.598
399.379
399.157
398.933
398.712
398.493
398.277
398.065
397.855
397.649
397.445
397.245
397.048
396.854
396.662
396.474
396.288
396.105
395.924
395.746
395.571
395.399
395.23
395.063
394.898
394.736
394.576
394.419
394.264
394.365
394.471
394.568
394.65
394.715
400
400
400
400
400
399.808
399.598
399.379
399.156
398.932
398.71
398.491
398.275
398.062
397.852
397.646
397.442
397.241
397.044
396.849
396.658
396.469
396.283
396.099
395.918
395.741
395.565
395.393
395.224
395.057
394.892
394.731
394.572
394.415
394.261
394.362
394.468
394.565
394.649
394.713
400
400
400
400
400
399.807
399.597
399.377
399.154
398.93
398.708
398.488
398.271
398.058
397.847
397.64
397.436
397.235
397.037
396.842
396.649
396.46
396.274
396.09
395.909
395.731
395.556
395.383
395.214
395.046
394.882
394.72
394.561
394.405
394.251
394.352
394.458
394.556
394.64
394.705
400
400
400
400
400
399.807
399.596
399.377
399.153
398.929
398.707
398.487
398.27
398.056
397.845
397.638
397.433
397.232
397.033
396.838
396.645
396.455
396.269
396.085
395.904
395.725
395.55
395.377
395.208
395.04
394.876
394.714
394.555
394.399
394.246
394.348
394.454
394.552
394.636
394.702
400
400
400
400
400
399.807
399.596
399.376
399.152
398.928
398.705
398.485
398.268
398.053
397.842
397.634
397.429
397.227
397.028
396.832
396.639
396.449
396.262
396.078
395.896
395.718
395.542
395.369
395.2
395.032
394.868
394.706
394.547
394.391
394.238
394.34
394.447
394.545
394.63
394.696
400
400
400
400
400
399.807
399.596
399.376
399.152
398.927
398.705
398.484
398.267
398.053
397.841
397.633
397.428
397.225
397.026
396.829
396.636
396.445
396.258
396.073
395.892
395.713
395.538
395.365
395.195
395.028
394.863
394.701
394.543
394.387
394.234
394.337
394.443
394.542
394.627
394.693
400
400
400
400
400
399.807
399.596
399.376
399.151
398.927
398.704
398.483
398.266
398.051
397.84
397.631
397.426
397.223
397.023
396.826
396.633
396.442
396.253
396.069
395.887
395.709
395.533
395.36
395.19
395.023
394.858
394.696
394.538
394.382
394.229
394.332
394.439
394.538
394.623
394.69
400
400
400
400
400
399.807
399.596
399.376
399.151
398.926
398.703
398.483
398.265
398.051
397.839
397.631
397.425
397.222
397.022
396.826
396.632
396.441
396.253
396.068
395.886
395.708
395.532
395.359
395.189
395.021
394.857
394.695
394.536
394.381
394.228
394.331
394.438
394.537
394.622
394.69
400
400
400
400
400
399.807
399.597
399.376
399.151
398.926
398.703
398.482
398.264
398.05
397.838
397.63
397.424
397.221
397.021
396.825
396.631
396.441
396.253
396.068
395.886
395.707
395.531
395.358
395.188
395.021
394.856
394.694
394.535
394.38
394.227
394.33
394.437
394.536
394.622
394.689
400
400
400
400
400
399.808
399.597
399.376
399.151
398.926
398.702
398.481
398.263
398.049
397.837
397.629
397.423
397.22
397.021
396.824
396.631
396.441
396.253
396.068
395.886
395.707
395.532
395.359
395.189
395.021
394.857
394.695
394.536
394.381
394.228
394.33
394.438
394.537
394.622
394.69
400
400
400
400
400
399.808
399.597
399.376
399.151
398.926
398.702
398.481
398.263
398.048
397.836
397.628
397.422
397.22
397.02
396.824
396.631
396.44
396.252
396.068
395.886
395.707
395.532
395.359
395.189
395.022
394.858
394.696
394.537
394.382
394.228
394.331
394.438
394.537
394.622
394.69
400
400
400
400
400
399.808
399.597
399.377
399.152
398.926
398.702
398.481
398.262
398.048
397.836
397.628
397.422
397.219
397.02
396.824
396.631
396.44
396.252
396.067
395.885
395.707
395.532
395.359
395.19
395.023
394.859
394.697
394.538
394.382
394.228
394.331
394.438
394.537
394.622
394.689
400
400
400
400
400
399.808
399.598
399.377
399.152
398.926
398.702
398.481
398.263
398.048
397.837
397.628
397.423
397.22
397.021
396.824
396.631
396.44
396.252
396.068
395.886
395.708
395.533
395.361
395.191
395.025
394.861
394.699
394.54
394.384
394.23
394.332
394.439
394.538
394.623
394.69
400
400
400
400
400
399.808
399.598
399.377
399.152
398.927
398.703
398.482
398.264
398.049
397.837
397.629
397.424
397.222
397.022
396.825
396.632
396.441
396.253
396.069
395.887
395.709
395.534
395.362
395.193
395.026
394.862
394.7
394.542
394.385
394.23
394.333
394.439
394.538
394.623
394.689
400
400
400
400
400
399.808
399.598
399.378
399.153
398.928
398.704
398.483
398.265
398.051
397.84
397.632
397.427
397.225
397.025
396.829
396.636
396.445
396.258
396.073
395.892
395.714
395.539
395.366
395.197
395.031
394.867
394.705
394.546
394.39
394.234
394.337
394.443
394.542
394.626
394.693
400
400
400
400
400
399.808
399.598
399.378
399.153
398.928
398.705
398.484
398.267
398.052
397.841
397.634
397.429
397.227
397.028
396.833
396.639
396.449
396.262
396.078
395.897
395.719
395.543
395.371
395.202
395.035
394.871
394.709
394.55
394.393
394.237
394.339
394.446
394.544
394.628
394.694
400
400
400
400
400
399.809
399.599
399.379
399.155
398.93
398.707
398.487
398.27
398.056
397.845
397.638
397.434
397.232
397.034
396.838
396.646
396.456
396.269
396.085
395.904
395.726
395.551
395.378
395.209
395.043
394.878
394.716
394.557
394.4
394.244
394.346
394.453
394.551
394.635
394.7
400
400
400
400
400
399.809
399.599
399.379
399.156
398.931
398.709
398.489
398.272
398.058
397.848
397.641
397.437
397.236
397.038
396.843
396.65
396.461
396.274
396.091
395.91
395.732
395.556
395.384
395.215
395.048
394.883
394.722
394.562
394.405
394.249
394.35
394.456
394.554
394.638
394.703
400
400
400
400
400
399.809
399.6
399.381
399.158
398.934
398.712
398.493
398.276
398.063
397.853
397.647
397.443
397.243
397.045
396.851
396.659
396.47
396.283
396.1
395.919
395.741
395.566
395.394
395.225
395.058
394.894
394.732
394.572
394.415
394.259
394.36
394.466
394.563
394.647
394.712
400
400
400
400
400
399.809
399.6
399.381
399.159
398.935
398.713
398.495
398.279
398.066
397.857
397.65
397.447
397.247
397.049
396.855
396.664
396.475
396.289
396.105
395.925
395.747
395.572
395.4
395.23
395.063
394.899
394.736
394.577
394.419
394.262
394.363
394.469
394.566
394.649
394.713
400
400
400
400
400
399.81
399.602
399.384
399.162
398.939
398.718
398.499
398.284
398.072
397.863
397.657
397.454
397.254
397.057
396.863
396.671
396.482
396.296
396.112
395.931
395.753
395.579
395.406
395.237
395.07
394.905
394.742
394.582
394.424
394.267
394.368
394.474
394.571
394.654
394.718
400
400
400
400
400
399.81
399.602
399.384
399.162
398.939
398.718
398.499
398.283
398.07
397.861
397.654
397.45
397.249
397.05
396.855
396.662
396.471
396.283
396.098
395.915
395.735
395.559
395.385
395.214
395.045
394.879
394.715
394.554
394.395
394.237
394.339
394.445
394.542
394.625
394.689
400
400
400
400
400
399.811
399.603
399.384
399.161
398.936
398.713
398.491
398.272
398.056
397.842
397.63
397.421
397.215
397.011
396.809
396.61
396.412
396.217
396.024
395.834
395.648
395.464
395.284
395.107
394.933
394.762
394.595
394.43
394.268
394.107
394.213
394.323
394.424
394.51
394.575
400
400
400
400
400
399.807
399.592
399.365
399.131
398.895
398.658
398.422
398.187
397.954
397.722
397.491
397.263
397.036
396.811
396.587
396.365
396.144
395.924
395.707
395.492
395.28
395.071
394.865
394.662
394.463
394.269
394.08
393.896
393.716
393.54
393.664
393.788
393.898
393.986
394.049
400
400
400
400
399.999
399.775
399.521
399.25
398.97
398.685
398.398
398.111
397.824
397.537
397.251
396.966
396.682
396.4
396.118
395.838
395.558
395.279
395.001
394.726
394.452
394.181
393.912
393.645
393.381
393.118
392.857
392.598
392.34
392.083
391.826
392.054
392.255
392.409
392.507
392.548
400
400
400
400
400
399.858
399.696
399.516
399.319
399.109
398.888
398.658
398.421
398.178
397.93
397.679
397.424
397.167
396.908
396.648
396.387
396.127
395.865
395.604
395.342
395.082
394.821
394.562
394.304
394.047
393.791
393.536
393.283
393.03
392.779
392.838
392.908
392.97
393.011
393.022
400
400
400
400
400
399.878
399.742
399.594
399.434
399.266
399.09
398.908
398.722
398.532
398.339
398.143
397.946
397.747
397.547
397.347
397.147
396.947
396.747
396.547
396.348
396.15
395.954
395.759
395.567
395.377
395.191
395.008
394.831
394.657
394.488
394.502
394.527
394.554
394.58
394.598
400
400
400
400
400
399.881
399.749
399.606
399.455
399.296
399.131
398.962
398.79
398.616
398.44
398.262
398.083
397.905
397.726
397.547
397.369
397.192
397.015
396.839
396.665
396.492
396.321
396.153
395.986
395.823
395.661
395.503
395.347
395.193
395.041
395.05
395.068
395.089
395.111
395.129
400
400
400
400
400
399.88
399.749
399.606
399.456
399.298
399.135
398.969
398.799
398.628
398.456
398.282
398.109
397.935
397.761
397.589
397.417
397.246
397.076
396.908
396.74
396.575
396.411
396.249
396.089
395.931
395.775
395.621
395.469
395.319
395.17
395.177
395.191
395.21
395.229
395.244
400
400
400
400
400
399.88
399.748
399.606
399.456
399.298
399.136
398.969
398.801
398.63
398.458
398.286
398.113
397.94
397.768
397.597
397.427
397.257
397.089
396.922
396.757
396.593
396.431
396.271
396.113
395.957
395.802
395.65
395.499
395.35
395.202
395.209
395.224
395.242
395.261
395.276
400
400
400
400
400
399.88
399.747
399.605
399.453
399.295
399.132
398.966
398.796
398.625
398.453
398.28
398.107
397.934
397.762
397.591
397.42
397.251
397.083
396.916
396.751
396.587
396.425
396.266
396.108
395.951
395.797
395.644
395.494
395.345
395.198
395.205
395.219
395.238
395.256
395.271
400
400
400
400
400
399.879
399.747
399.604
399.453
399.294
399.131
398.964
398.795
398.623
398.451
398.278
398.104
397.931
397.759
397.587
397.416
397.247
397.078
396.912
396.746
396.582
396.421
396.261
396.103
395.947
395.792
395.64
395.49
395.342
395.195
395.202
395.217
395.236
395.255
395.27
400
400
400
400
400
399.879
399.746
399.603
399.451
399.293
399.129
398.962
398.791
398.619
398.446
398.273
398.099
397.925
397.752
397.58
397.409
397.239
397.07
396.903
396.737
396.573
396.411
396.251
396.093
395.937
395.782
395.63
395.479
395.331
395.185
395.192
395.207
395.226
395.246
395.261
400
400
400
400
400
399.879
399.746
399.603
399.451
399.292
399.128
398.961
398.79
398.618
398.445
398.271
398.097
397.923
397.75
397.577
397.406
397.235
397.066
396.899
396.733
396.569
396.407
396.246
396.088
395.931
395.777
395.625
395.475
395.327
395.18
395.188
395.204
395.223
395.243
395.259
400
400
400
400
400
399.879
399.746
399.602
399.45
399.291
399.127
398.959
398.788
398.616
398.442
398.268
398.093
397.919
397.745
397.572
397.4
397.229
397.06
396.892
396.726
396.562
396.399
396.239
396.08
395.924
395.769
395.617
395.467
395.319
395.172
395.18
395.196
395.216
395.236
395.252
400
400
400
400
400
399.879
399.746
399.602
399.45
399.291
399.127
398.959
398.788
398.615
398.441
398.267
398.092
397.918
397.743
397.57
397.398
397.227
397.057
396.889
396.723
396.558
396.396
396.235
396.076
395.92
395.765
395.613
395.463
395.315
395.169
395.177
395.193
395.213
395.233
395.25
400
400
400
400
400
399.879
399.746
399.602
399.45
399.29
399.126
398.958
398.787
398.614
398.44
398.265
398.09
397.915
397.741
397.567
397.395
397.223
397.053
396.885
396.719
396.554
396.391
396.231
396.072
395.915
395.76
395.608
395.458
395.31
395.164
395.172
395.188
395.209
395.229
395.246
400
400
400
400
400
399.879
399.746
399.602
399.45
399.29
399.126
398.958
398.787
398.614
398.44
398.265
398.09
397.915
397.74
397.567
397.394
397.223
397.053
396.884
396.718
396.553
396.39
396.23
396.071
395.914
395.759
395.607
395.457
395.309
395.163
395.171
395.188
395.208
395.229
395.246
400
400
400
400
400
399.879
399.746
399.602
399.45
399.29
399.125
398.957
398.786
398.613
398.439
398.264
398.089
397.914
397.739
397.566
397.394
397.222
397.052
396.884
396.717
396.552
396.389
396.229
396.07
395.913
395.758
395.606
395.456
395.308
395.162
395.17
395.186
395.207
395.228
395.245
400
400
400
400
400
399.879
399.746
399.603
399.45
399.29
399.125
398.957
398.785
398.612
398.438
398.263
398.088
397.913
397.739
397.566
397.393
397.222
397.052
396.884
396.717
396.552
396.39
396.229
396.07
395.913
395.759
395.606
395.456
395.308
395.162
395.171
395.187
395.207
395.228
395.246
400
400
400
400
400
399.88
399.747
399.603
399.45
399.29
399.125
398.956
398.785
398.612
398.438
398.263
398.088
397.913
397.739
397.565
397.393
397.222
397.052
396.884
396.717
396.552
396.39
396.229
396.071
395.914
395.759
395.607
395.457
395.309
395.163
395.171
395.187
395.208
395.228
395.246
400
400
400
400
400
399.88
399.747
399.603
399.45
399.29
399.125
398.956
398.785
398.612
398.437
398.263
398.088
397.913
397.738
397.565
397.393
397.222
397.052
396.883
396.717
396.552
396.39
396.229
396.071
395.914
395.76
395.608
395.458
395.31
395.163
395.171
395.187
395.208
395.228
395.245
400
400
400
400
400
399.88
399.747
399.603
399.45
399.29
399.125
398.957
398.785
398.612
398.438
398.263
398.088
397.913
397.739
397.566
397.394
397.222
397.052
396.884
396.718
396.553
396.391
396.23
396.072
395.916
395.762
395.609
395.459
395.311
395.164
395.172
395.188
395.209
395.229
395.246
400
400
400
400
400
399.88
399.747
399.603
399.45
399.291
399.126
398.957
398.786
398.613
398.439
398.264
398.089
397.914
397.74
397.567
397.394
397.223
397.053
396.885
396.719
396.554
396.392
396.232
396.073
395.917
395.763
395.611
395.461
395.312
395.165
395.173
395.189
395.209
395.229
395.246
400
400
400
400
400
399.88
399.747
399.604
399.451
399.291
399.127
398.958
398.787
398.614
398.44
398.266
398.092
397.917
397.743
397.57
397.398
397.227
397.057
396.889
396.723
396.559
396.396
396.236
396.078
395.922
395.768
395.615
395.465
395.317
395.17
395.177
395.193
395.213
395.233
395.249
400
400
400
400
400
399.88
399.747
399.604
399.451
399.292
399.127
398.959
398.788
398.616
398.442
398.268
398.093
397.919
397.745
397.573
397.401
397.23
397.061
396.893
396.727
396.563
396.4
396.24
396.082
395.926
395.771
395.619
395.469
395.32
395.172
395.18
395.195
395.215
395.235
395.251
400
400
400
400
400
399.88
399.748
399.604
399.452
399.293
399.129
398.961
398.791
398.618
398.445
398.271
398.097
397.924
397.75
397.578
397.406
397.236
397.067
396.899
396.734
396.569
396.407
396.247
396.089
395.933
395.779
395.626
395.476
395.327
395.18
395.187
395.203
395.222
395.242
395.258
400
400
400
400
400
399.88
399.748
399.605
399.453
399.294
399.13
398.962
398.792
398.62
398.447
398.273
398.1
397.926
397.753
397.581
397.41
397.24
397.071
396.904
396.738
396.574
396.412
396.252
396.094
395.938
395.783
395.631
395.48
395.332
395.184
395.191
395.206
395.225
395.244
395.26
400
400
400
400
400
399.88
399.748
399.606
399.454
399.296
399.132
398.965
398.796
398.624
398.452
398.279
398.105
397.932
397.76
397.588
397.417
397.248
397.079
396.912
396.747
396.583
396.421
396.261
396.104
395.948
395.793
395.641
395.49
395.342
395.194
395.201
395.216
395.235
395.254
395.269
400
400
400
400
400
399.88
399.749
399.606
399.455
399.297
399.133
398.967
398.797
398.626
398.454
398.281
398.108
397.935
397.763
397.592
397.421
397.252
397.083
396.917
396.751
396.588
396.426
396.266
396.108
395.952
395.797
395.645
395.494
395.345
395.197
395.203
395.218
395.236
395.255
395.269
400
400
400
400
400
399.881
399.749
399.607
399.457
399.299
399.137
398.971
398.802
398.631
398.459
398.287
398.114
397.942
397.77
397.598
397.428
397.258
397.09
396.923
396.757
396.594
396.432
396.272
396.114
395.957
395.803
395.65
395.499
395.35
395.201
395.208
395.223
395.241
395.26
395.274
400
400
400
400
400
399.881
399.75
399.607
399.457
399.299
399.136
398.97
398.801
398.629
398.457
398.283
398.11
397.936
397.763
397.59
397.418
397.247
397.077
396.908
396.741
396.575
396.412
396.25
396.09
395.932
395.776
395.622
395.469
395.319
395.169
395.176
395.191
395.21
395.229
395.244
400
400
400
400
400
399.881
399.75
399.607
399.456
399.297
399.132
398.964
398.791
398.617
398.441
398.263
398.085
397.906
397.727
397.549
397.371
397.193
397.016
396.84
396.665
396.493
396.322
396.153
395.987
395.823
395.662
395.504
395.348
395.194
395.041
395.05
395.067
395.089
395.111
395.128
400
400
400
400
400
399.879
399.743
399.595
399.435
399.267
399.091
398.909
398.723
398.533
398.34
398.144
397.947
397.749
397.55
397.35
397.149
396.948
396.747
396.547
396.348
396.15
395.954
395.76
395.567
395.378
395.191
395.009
394.831
394.658
394.488
394.503
394.527
394.555
394.58
394.598
400
400
400
400
400
399.859
399.697
399.517
399.32
399.11
398.889
398.659
398.422
398.179
397.931
397.68
397.426
397.169
396.911
396.651
396.39
396.128
395.866
395.603
395.342
395.081
394.821
394.562
394.304
394.047
393.791
393.537
393.284
393.031
392.779
392.839
392.909
392.971
393.012
393.024
400
400
400
400
400
399.892
399.772
399.641
399.499
399.346
399.183
399.01
398.828
398.639
398.441
398.237
398.027
397.812
397.592
397.369
397.142
396.912
396.68
396.445
396.209
395.971
395.732
395.492
395.251
395.01
394.769
394.528
394.288
394.048
393.809
393.8
393.796
393.794
393.786
393.764
400
400
400
400
400
399.906
399.805
399.696
399.581
399.459
399.331
399.197
399.058
398.914
398.765
398.612
398.455
398.295
398.132
397.967
397.8
397.631
397.461
397.289
397.117
396.944
396.771
396.598
396.426
396.255
396.086
395.919
395.756
395.595
395.439
395.418
395.402
395.39
395.378
395.366
400
400
400
400
400
399.908
399.809
399.705
399.596
399.481
399.361
399.237
399.109
398.977
398.842
398.705
398.564
398.422
398.278
398.132
397.986
397.838
397.69
397.541
397.392
397.243
397.095
396.948
396.801
396.656
396.513
396.371
396.232
396.094
395.958
395.938
395.923
395.909
395.897
395.885
400
400
400
400
400
399.907
399.809
399.706
399.596
399.482
399.364
399.242
399.116
398.987
398.855
398.721
398.585
398.447
398.308
398.168
398.027
397.885
397.743
397.601
397.458
397.317
397.176
397.035
396.896
396.757
396.619
396.483
396.348
396.214
396.081
396.061
396.044
396.03
396.015
396
400
400
400
400
400
399.907
399.809
399.705
399.596
399.482
399.364
399.242
399.117
398.989
398.857
398.724
398.589
398.452
398.314
398.175
398.035
397.895
397.755
397.614
397.474
397.334
397.195
397.057
396.919
396.782
396.646
396.512
396.378
396.246
396.114
396.095
396.078
396.063
396.049
396.033
400
400
400
400
400
399.907
399.808
399.704
399.595
399.481
399.362
399.24
399.114
398.985
398.853
398.72
398.584
398.447
398.309
398.17
398.03
397.89
397.75
397.609
397.469
397.329
397.19
397.052
396.915
396.778
396.642
396.508
396.374
396.242
396.111
396.091
396.075
396.06
396.045
396.029
400
400
400
400
400
399.907
399.808
399.704
399.594
399.48
399.361
399.239
399.113
398.984
398.852
398.718
398.582
398.445
398.306
398.167
398.027
397.887
397.746
397.606
397.465
397.326
397.186
397.048
396.911
396.774
396.639
396.504
396.371
396.239
396.109
396.089
396.073
396.059
396.045
396.029
400
400
400
400
400
399.907
399.808
399.703
399.594
399.479
399.36
399.237
399.11
398.981
398.848
398.714
398.578
398.44
398.301
398.161
398.021
397.88
397.739
397.599
397.458
397.318
397.178
397.04
396.902
396.765
396.63
396.495
396.362
396.23
396.099
396.08
396.064
396.049
396.035