/*--------------------------------*- C++ -*----------------------------------*\
| =========                 |                                                 |
| \\      /  F ield         | OpenFOAM: The Open Source CFD Toolbox           |
|  \\    /   O peration     | Version:  5.0                                   |
|   \\  /    A nd           | Web:      www.OpenFOAM.org                      |
|    \\/     M anipulation  |                                                 |
\*---------------------------------------------------------------------------*/
FoamFile
{
    version     2.0;
    format      ascii;
    class       volVectorField;
    location    "200/porous";
    object      U;
}
// * * * * * * * * * * * * * * * * * * * * * * * * * * * * * * * * * * * * * //

dimensions      [0 1 -1 0 0 0 0];

internalField   nonuniform List<vector> 
36000
(
(0.00555056 7.02127e-05 0.000289042)
(0.00340903 4.42548e-05 6.71224e-05)
(0.00220329 3.69639e-05 1.37094e-05)
(0.00180686 3.07685e-05 1.60336e-06)
(0.00158038 2.55944e-05 1.93771e-07)
(0.00143087 2.16609e-05 -4.3603e-08)
(0.00131992 1.86586e-05 -9.92035e-08)
(0.00123221 1.632e-05 -1.35684e-07)
(0.00116052 1.44473e-05 -1.60051e-07)
(0.00110042 1.29118e-05 -1.72919e-07)
(0.00104907 1.16274e-05 -1.77827e-07)
(0.00100455 1.0535e-05 -1.7733e-07)
(0.00096547 9.59296e-06 -1.73256e-07)
(0.000930829 8.7711e-06 -1.66863e-07)
(0.000899865 8.04733e-06 -1.59012e-07)
(0.00087199 7.40535e-06 -1.50335e-07)
(0.000846742 6.83313e-06 -1.41308e-07)
(0.000823753 6.32168e-06 -1.32302e-07)
(0.000802726 5.86403e-06 -1.23614e-07)
(0.00078342 5.45433e-06 -1.15439e-07)
(0.000765637 5.08697e-06 -1.07847e-07)
(0.000749217 4.75604e-06 -1.00778e-07)
(0.000734026 4.45503e-06 -9.40247e-08)
(0.000719958 4.17706e-06 -8.72484e-08)
(0.000706926 3.91549e-06 -8.0067e-08)
(0.000694859 3.66474e-06 -7.21014e-08)
(0.000683698 3.42128e-06 -6.31044e-08)
(0.000673396 3.18427e-06 -5.30368e-08)
(0.000663913 2.95574e-06 -4.21401e-08)
(0.000655218 2.74028e-06 -3.09163e-08)
(0.000647284 2.54249e-06 -2.00346e-08)
(0.000640093 2.36395e-06 -1.02369e-08)
(0.000633627 2.20131e-06 -1.95244e-09)
(0.000627889 2.05235e-06 3.96319e-09)
(0.000622848 1.90956e-06 8.27346e-09)
(0.000618553 1.78347e-06 9.53536e-09)
(0.000614723 1.68606e-06 9.57963e-09)
(0.000611556 1.52634e-06 7.44218e-09)
(0.000608598 1.6732e-06 -7.2732e-09)
(0.000605159 -1.50358e-08 1.10108e-07)
(0.00562429 8.38019e-05 0.000295874)
(0.00352515 5.57859e-05 6.94443e-05)
(0.00238476 4.95062e-05 1.59396e-05)
(0.00202138 4.17585e-05 3.37246e-06)
(0.00182312 3.58424e-05 1.57099e-06)
(0.00169624 3.13322e-05 1.11423e-06)
(0.0016036 2.77805e-05 9.06689e-07)
(0.00153095 2.491e-05 7.56713e-07)
(0.00147176 2.2517e-05 6.42948e-07)
(0.00142217 2.04744e-05 5.57498e-07)
(0.00137972 1.86984e-05 4.9213e-07)
(0.00134278 1.71321e-05 4.41098e-07)
(0.00131018 1.57356e-05 4.00403e-07)
(0.0012811 1.44803e-05 3.67291e-07)
(0.00125492 1.33454e-05 3.39833e-07)
(0.00123117 1.23156e-05 3.16648e-07)
(0.00120947 1.13794e-05 2.96727e-07)
(0.00118955 1.05277e-05 2.79306e-07)
(0.00117118 9.75203e-06 2.63824e-07)
(0.0011542 9.04275e-06 2.49881e-07)
(0.00113847 8.38741e-06 2.37237e-07)
(0.00112391 7.76961e-06 2.25811e-07)
(0.00111044 7.16877e-06 2.15677e-07)
(0.00109802 6.56113e-06 2.07039e-07)
(0.00108661 5.92203e-06 2.00194e-07)
(0.00107619 5.2292e-06 1.95464e-07)
(0.00106674 4.46642e-06 1.93116e-07)
(0.00105822 3.62691e-06 1.93269e-07)
(0.00105061 2.71553e-06 1.95675e-07)
(0.0010439 1.74911e-06 2.00057e-07)
(0.00103808 7.55749e-07 2.06256e-07)
(0.00103312 -2.22551e-07 2.1366e-07)
(0.00102893 -1.1366e-06 2.21007e-07)
(0.00102542 -1.93126e-06 2.26457e-07)
(0.00102244 -2.56923e-06 2.28517e-07)
(0.00101995 -2.98908e-06 2.24491e-07)
(0.0010177 -3.20416e-06 2.18851e-07)
(0.00101609 -3.1244e-06 1.95978e-07)
(0.00101374 -2.77229e-06 2.19038e-07)
(0.00101224 -2.65862e-06 3.72817e-08)
(0.00561665 4.31986e-05 0.000294818)
(0.00351435 3.87549e-05 6.83114e-05)
(0.00239037 3.89917e-05 1.53282e-05)
(0.00203483 3.50478e-05 2.96224e-06)
(0.00184471 3.11661e-05 1.26848e-06)
(0.00172533 2.78116e-05 8.86459e-07)
(0.00163969 2.49079e-05 7.21893e-07)
(0.00157364 2.24198e-05 5.97656e-07)
(0.00152072 2.02724e-05 4.99546e-07)
(0.00147707 1.84023e-05 4.23741e-07)
(0.00144027 1.67585e-05 3.64444e-07)
(0.00140869 1.53008e-05 3.17364e-07)
(0.00138119 1.39982e-05 2.79401e-07)
(0.00135694 1.28268e-05 2.48359e-07)
(0.00133534 1.17679e-05 2.22677e-07)
(0.00131593 1.08072e-05 2.01211e-07)
(0.00129835 9.93295e-06 1.83125e-07)
(0.00128234 9.13461e-06 1.67776e-07)
(0.00126768 8.40082e-06 1.54667e-07)
(0.00125421 7.71751e-06 1.43427e-07)
(0.00124182 7.06615e-06 1.33772e-07)
(0.00123042 6.42279e-06 1.25506e-07)
(0.00121993 5.75819e-06 1.18518e-07)
(0.00121031 5.03972e-06 1.12768e-07)
(0.00120152 4.23473e-06 1.08264e-07)
(0.00119352 3.31531e-06 1.05035e-07)
(0.00118625 2.26359e-06 1.03082e-07)
(0.00117966 1.07669e-06 1.02277e-07)
(0.00117369 -2.29851e-07 1.02603e-07)
(0.00116828 -1.6199e-06 1.03674e-07)
(0.00116331 -3.03679e-06 1.0449e-07)
(0.00115873 -4.40505e-06 1.04109e-07)
(0.00115448 -5.64152e-06 1.02069e-07)
(0.00115056 -6.65851e-06 9.82088e-08)
(0.00114696 -7.39334e-06 9.28556e-08)
(0.00114371 -7.7614e-06 8.52511e-08)
(0.0011407 -7.81617e-06 7.74175e-08)
(0.00113818 -7.25338e-06 6.24186e-08)
(0.00113557 -6.81452e-06 7.09736e-08)
(0.00113336 -3.79071e-06 -4.69205e-09)
(0.00560903 3.72179e-05 0.000295464)
(0.00349577 4.16684e-05 6.89141e-05)
(0.00237452 4.09011e-05 1.5737e-05)
(0.00202133 3.65958e-05 3.25869e-06)
(0.00183431 3.22539e-05 1.48091e-06)
(0.00171797 2.84861e-05 1.04272e-06)
(0.00163519 2.52714e-05 8.38266e-07)
(0.00157184 2.25647e-05 6.87117e-07)
(0.00152146 2.02743e-05 5.71018e-07)
(0.00148021 1.83175e-05 4.83105e-07)
(0.00144569 1.66268e-05 4.15611e-07)
(0.0014163 1.51495e-05 3.62921e-07)
(0.0013909 1.3845e-05 3.21056e-07)
(0.00136868 1.26824e-05 2.87225e-07)
(0.00134905 1.16379e-05 2.59471e-07)
(0.00133154 1.06929e-05 2.36388e-07)
(0.0013158 9.83221e-06 2.16949e-07)
(0.00130157 9.04229e-06 2.00394e-07)
(0.00128864 8.30915e-06 1.86135e-07)
(0.00127683 7.61664e-06 1.73716e-07)
(0.00126603 6.94486e-06 1.62785e-07)
(0.00125614 6.2694e-06 1.53058e-07)
(0.00124706 5.56171e-06 1.44335e-07)
(0.00123874 4.79106e-06 1.36465e-07)
(0.0012311 3.92792e-06 1.29357e-07)
(0.00122408 2.94867e-06 1.22969e-07)
(0.00121762 1.84086e-06 1.17276e-07)
(0.00121163 6.08045e-07 1.12299e-07)
(0.00120604 -7.26957e-07 1.0798e-07)
(0.00120078 -2.12019e-06 1.04176e-07)
(0.00119577 -3.50919e-06 1.00735e-07)
(0.00119098 -4.82029e-06 9.75023e-08)
(0.00118638 -5.97877e-06 9.43806e-08)
(0.00118199 -6.90762e-06 9.10862e-08)
(0.00117781 -7.55353e-06 8.74933e-08)
(0.0011739 -7.83469e-06 8.29334e-08)
(0.00117023 -7.79316e-06 7.84878e-08)
(0.00116688 -7.13799e-06 7.01703e-08)
(0.00116401 -6.52907e-06 6.58178e-08)
(0.00116014 -3.60934e-06 8.45653e-08)
(0.00560508 2.48873e-05 0.00029527)
(0.00348634 3.19096e-05 6.8561e-05)
(0.00236678 3.29947e-05 1.53586e-05)
(0.00201478 3.08456e-05 2.95256e-06)
(0.00182897 2.80112e-05 1.23553e-06)
(0.00171363 2.52313e-05 8.45311e-07)
(0.00163167 2.26639e-05 6.75979e-07)
(0.00156903 2.03776e-05 5.50675e-07)
(0.00151928 1.83643e-05 4.53607e-07)
(0.00147863 1.6595e-05 3.79689e-07)
(0.00144469 1.5036e-05 3.22532e-07)
(0.00141586 1.36558e-05 2.77539e-07)
(0.00139103 1.24268e-05 2.41467e-07)
(0.00136938 1.13261e-05 2.12072e-07)
(0.00135031 1.03348e-05 1.87787e-07)
(0.00133337 9.43706e-06 1.67492e-07)
(0.00131821 8.61898e-06 1.50376e-07)
(0.00130455 7.86756e-06 1.35822e-07)
(0.00129218 7.1691e-06 1.23357e-07)
(0.00128093 6.50776e-06 1.12595e-07)
(0.00127067 5.86447e-06 1.03221e-07)
(0.00126128 5.21642e-06 9.49548e-08)
(0.00125267 4.53758e-06 8.75687e-08)
(0.00124477 3.80054e-06 8.08602e-08)
(0.0012375 2.9795e-06 7.46607e-08)
(0.00123079 2.05444e-06 6.88335e-08)
(0.00122456 1.01557e-06 6.32837e-08)
(0.00121874 -1.32498e-07 5.79283e-08)
(0.00121327 -1.36806e-06 5.26748e-08)
(0.00120807 -2.65181e-06 4.74381e-08)
(0.0012031 -3.92925e-06 4.22089e-08)
(0.00119833 -5.13392e-06 3.69498e-08)
(0.00119374 -6.19566e-06 3.16542e-08)
(0.00118933 -7.04137e-06 2.63287e-08)
(0.00118513 -7.61758e-06 2.10899e-08)
(0.00118117 -7.84778e-06 1.58708e-08)
(0.00117749 -7.75772e-06 1.11459e-08)
(0.00117405 -7.11437e-06 6.40769e-09)
(0.00117149 -6.36973e-06 9.37733e-11)
(0.00116762 -4.0691e-06 5.5982e-08)
(0.005603 2.06431e-05 0.000295425)
(0.00348001 3.00624e-05 6.88203e-05)
(0.0023591 3.20573e-05 1.56022e-05)
(0.00200672 3.05765e-05 3.1746e-06)
(0.00182116 2.80203e-05 1.4276e-06)
(0.0017063 2.52897e-05 1.00838e-06)
(0.0016249 2.26843e-05 8.1336e-07)
(0.00156283 2.03329e-05 6.66823e-07)
(0.00151364 1.82583e-05 5.52778e-07)
(0.0014735 1.64431e-05 4.65407e-07)
(0.00144003 1.48561e-05 3.97638e-07)
(0.00141164 1.34641e-05 3.44262e-07)
(0.0013872 1.22365e-05 3.01533e-07)
(0.00136592 1.1147e-05 2.66804e-07)
(0.0013472 1.01735e-05 2.38193e-07)
(0.00133058 9.29734e-06 2.14334e-07)
(0.00131572 8.50245e-06 1.94232e-07)
(0.00130235 7.77416e-06 1.77124e-07)
(0.00129026 7.09783e-06 1.6242e-07)
(0.00127926 6.45764e-06 1.49652e-07)
(0.00126923 5.83562e-06 1.38441e-07)
(0.00126006 5.21138e-06 1.28468e-07)
(0.00125165 4.56247e-06 1.19458e-07)
(0.00124391 3.86597e-06 1.11197e-07)
(0.00123679 3.10097e-06 1.03511e-07)
(0.00123019 2.25191e-06 9.62703e-08)
(0.00122407 1.31218e-06 8.93997e-08)
(0.00121834 2.87263e-07 8.28593e-08)
(0.00121295 -8.03335e-07 7.66411e-08)
(0.00120785 -1.92567e-06 7.0788e-08)
(0.00120298 -3.03325e-06 6.53333e-08)
(0.00119832 -4.07019e-06 6.02929e-08)
(0.00119385 -4.97783e-06 5.56651e-08)
(0.00118957 -5.6953e-06 5.14173e-08)
(0.00118551 -6.17591e-06 4.75078e-08)
(0.00118168 -6.35903e-06 4.38914e-08)
(0.00117816 -6.24745e-06 4.02921e-08)
(0.00117481 -5.71478e-06 3.70205e-08)
(0.0011725 -4.93769e-06 2.6801e-08)
(0.00116844 -3.49126e-06 8.70215e-08)
(0.00560161 1.5628e-05 0.000295385)
(0.00347577 2.40841e-05 6.87263e-05)
(0.00235408 2.62752e-05 1.54538e-05)
(0.00200186 2.55911e-05 3.02374e-06)
(0.00181672 2.38354e-05 1.2881e-06)
(0.00170234 2.17701e-05 8.83483e-07)
(0.00162138 1.96987e-05 7.03201e-07)
(0.00155968 1.77649e-05 5.70223e-07)
(0.00151079 1.60165e-05 4.68041e-07)
(0.0014709 1.44583e-05 3.90715e-07)
(0.00143764 1.30768e-05 3.31295e-07)
(0.00140941 1.18522e-05 2.84786e-07)
(0.00138512 1.07635e-05 2.47683e-07)
(0.00136397 9.79146e-06 2.17563e-07)
(0.00134536 8.91883e-06 1.92741e-07)
(0.00132884 8.13067e-06 1.72025e-07)
(0.00131408 7.41356e-06 1.54544e-07)
(0.0013008 6.7549e-06 1.39653e-07)
(0.00128878 6.14189e-06 1.26862e-07)
(0.00127786 5.56066e-06 1.15769e-07)
(0.0012679 4.99557e-06 1.06037e-07)
(0.00125878 4.42899e-06 9.73981e-08)
(0.00125042 3.84178e-06 8.95972e-08)
(0.00124273 3.21459e-06 8.24255e-08)
(0.00123564 2.52994e-06 7.57011e-08)
(0.00122908 1.77493e-06 6.92736e-08)
(0.00122299 9.44218e-07 6.30378e-08)
(0.00121731 4.25699e-08 5.69113e-08)
(0.00121198 -9.13458e-07 5.08621e-08)
(0.00120697 -1.89516e-06 4.48686e-08)
(0.00120221 -2.86313e-06 3.89526e-08)
(0.00119769 -3.76952e-06 3.31507e-08)
(0.0011934 -4.56322e-06 2.75131e-08)
(0.00118932 -5.19131e-06 2.21084e-08)
(0.00118548 -5.61013e-06 1.69831e-08)
(0.00118189 -5.77215e-06 1.22915e-08)
(0.00117862 -5.65819e-06 7.9924e-09)
(0.00117554 -5.2261e-06 4.28754e-09)
(0.00117348 -4.43148e-06 -8.71342e-10)
(0.00117004 -3.53633e-06 4.5635e-08)
(0.00560094 1.28859e-05 0.000295428)
(0.00347324 2.10615e-05 6.88154e-05)
(0.00235028 2.37314e-05 1.55517e-05)
(0.00199752 2.36637e-05 3.12786e-06)
(0.00181221 2.23867e-05 1.39143e-06)
(0.00169789 2.06361e-05 9.80939e-07)
(0.00161708 1.87661e-05 7.9259e-07)
(0.0015556 1.69597e-05 6.5099e-07)
(0.00150694 1.52952e-05 5.40523e-07)
(0.00146728 1.37976e-05 4.5565e-07)
(0.00143424 1.24652e-05 3.89569e-07)
(0.00140622 1.12846e-05 3.37298e-07)
(0.00138211 1.02381e-05 2.95269e-07)
(0.00136113 9.30772e-06 2.60958e-07)
(0.00134267 8.4766e-06 2.32578e-07)
(0.00132629 7.72957e-06 2.08832e-07)
(0.00131165 7.05288e-06 1.88768e-07)
(0.00129848 6.43371e-06 1.71658e-07)
(0.00128656 5.85943e-06 1.56937e-07)
(0.00127573 5.31686e-06 1.44154e-07)
(0.00126585 4.79175e-06 1.32933e-07)
(0.0012568 4.26864e-06 1.22966e-07)
(0.00124849 3.73126e-06 1.13979e-07)
(0.00124085 3.16355e-06 1.05746e-07)
(0.0012338 2.55138e-06 9.80844e-08)
(0.00122728 1.88467e-06 9.08458e-08)
(0.00122123 1.15968e-06 8.39367e-08)
(0.0012156 3.8104e-07 7.72967e-08)
(0.00121034 -4.37118e-07 7.09066e-08)
(0.0012054 -1.2709e-06 6.47974e-08)
(0.00120074 -2.08773e-06 5.89914e-08)
(0.00119635 -2.84837e-06 5.35376e-08)
(0.00119219 -3.51074e-06 4.84618e-08)
(0.00118828 -4.03206e-06 4.38008e-08)
(0.00118462 -4.37462e-06 3.95375e-08)
(0.00118121 -4.50543e-06 3.57035e-08)
(0.00117813 -4.39282e-06 3.21361e-08)
(0.00117525 -4.06007e-06 2.8214e-08)
(0.00117328 -3.3389e-06 2.33405e-08)
(0.00117003 -2.85691e-06 5.61253e-08)
(0.00560043 1.0174e-05 0.000295418)
(0.00347131 1.70114e-05 6.87909e-05)
(0.0023474 1.94197e-05 1.54997e-05)
(0.00199439 1.95642e-05 3.06469e-06)
(0.00180912 1.86543e-05 1.32493e-06)
(0.00169498 1.72901e-05 9.14605e-07)
(0.00161442 1.57841e-05 7.28838e-07)
(0.00155318 1.43014e-05 5.91173e-07)
(0.00150474 1.29184e-05 4.85224e-07)
(0.00146528 1.16634e-05 4.04951e-07)
(0.00143241 1.05399e-05 3.43269e-07)
(0.00140453 9.53975e-06 2.95047e-07)
(0.00138054 8.65004e-06 2.56655e-07)
(0.00135965 7.85669e-06 2.25563e-07)
(0.00134127 7.14616e-06 2.00005e-07)
(0.00132496 6.50599e-06 1.78728e-07)
(0.00131038 5.92476e-06 1.60814e-07)
(0.00129726 5.39168e-06 1.45579e-07)
(0.00128538 4.89611e-06 1.32504e-07)
(0.00127458 4.42692e-06 1.21168e-07)
(0.00126472 3.97217e-06 1.11233e-07)
(0.00125569 3.51898e-06 1.02412e-07)
(0.00124739 3.05389e-06 9.44427e-08)
(0.00123976 2.56373e-06 8.7114e-08)
(0.00123272 2.03692e-06 8.02359e-08)
(0.00122621 1.4653e-06 7.36666e-08)
(0.00122018 8.45871e-07 6.72886e-08)
(0.00121457 1.82497e-07 6.10242e-08)
(0.00120935 -5.13078e-07 5.48468e-08)
(0.00120447 -1.22104e-06 4.87439e-08)
(0.0011999 -1.91432e-06 4.27413e-08)
(0.00119561 -2.56026e-06 3.68888e-08)
(0.00119159 -3.1234e-06 3.12391e-08)
(0.00118783 -3.56808e-06 2.58618e-08)
(0.00118434 -3.86049e-06 2.0817e-08)
(0.00118112 -3.97736e-06 1.61518e-08)
(0.00117823 -3.87764e-06 1.21999e-08)
(0.00117559 -3.62149e-06 7.22784e-09)
(0.0011737 -2.96104e-06 7.4341e-09)
(0.00117104 -2.69272e-06 2.38035e-08)
(0.00560017 8.22271e-06 0.00029543)
(0.00347016 1.41092e-05 6.88215e-05)
(0.00234539 1.64736e-05 1.55359e-05)
(0.00199195 1.69032e-05 3.10738e-06)
(0.00180648 1.63517e-05 1.37215e-06)
(0.00169229 1.53169e-05 9.6338e-07)
(0.00161176 1.40881e-05 7.77202e-07)
(0.00155061 1.28296e-05 6.37816e-07)
(0.00150229 1.16264e-05 5.29377e-07)
(0.00146295 1.05172e-05 4.46236e-07)
(0.0014302 9.51425e-06 3.81575e-07)
(0.00140244 8.61613e-06 3.30436e-07)
(0.00137856 7.81486e-06 2.89289e-07)
(0.00135777 7.09979e-06 2.55662e-07)
(0.00133948 6.45974e-06 2.27812e-07)
(0.00132326 5.88391e-06 2.0447e-07)
(0.00130875 5.36211e-06 1.84717e-07)
(0.00129569 4.88463e-06 1.67853e-07)
(0.00128387 4.44193e-06 1.53331e-07)
(0.00127312 4.02423e-06 1.40716e-07)
(0.00126331 3.62127e-06 1.29642e-07)
(0.00125431 3.22221e-06 1.19814e-07)
(0.00124605 2.816e-06 1.10953e-07)
(0.00123844 2.39197e-06 1.02843e-07)
(0.00123142 1.94095e-06 9.52917e-08)
(0.00122493 1.4566e-06 8.81494e-08)
(0.00121893 9.36809e-07 8.13102e-08)
(0.00121336 3.84941e-07 7.4706e-08)
(0.00120818 -1.89413e-07 6.83121e-08)
(0.00120335 -7.70306e-07 6.2132e-08)
(0.00119885 -1.33609e-06 5.62011e-08)
(0.00119465 -1.86075e-06 5.05679e-08)
(0.00119073 -2.31586e-06 4.52664e-08)
(0.00118709 -2.67353e-06 4.03455e-08)
(0.00118372 -2.90566e-06 3.58447e-08)
(0.00118064 -2.99801e-06 3.16636e-08)
(0.00117788 -2.9092e-06 2.82765e-08)
(0.0011754 -2.71772e-06 2.27879e-08)
(0.00117352 -2.16772e-06 2.40624e-08)
(0.00117108 -2.05228e-06 2.82965e-08)
(0.00559996 6.37932e-06 0.000295427)
(0.00346924 1.10402e-05 6.88153e-05)
(0.00234381 1.29929e-05 1.55186e-05)
(0.00199008 1.33996e-05 3.08331e-06)
(0.00180451 1.30073e-05 1.34402e-06)
(0.00169035 1.22047e-05 9.32568e-07)
(0.00160993 1.12311e-05 7.45153e-07)
(0.00154892 1.0224e-05 6.05697e-07)
(0.00150074 9.25651e-06 4.98011e-07)
(0.00146154 8.3625e-06 4.1615e-07)
(0.00142891 7.55358e-06 3.5308e-07)
(0.00140125 6.82937e-06 3.03675e-07)
(0.00137746 6.18362e-06 2.64295e-07)
(0.00135675 5.60773e-06 2.32386e-07)
(0.00133853 5.09251e-06 2.06163e-07)
(0.00132236 4.62906e-06 1.84335e-07)
(0.0013079 4.20898e-06 1.65972e-07)
(0.00129488 3.82432e-06 1.50371e-07)
(0.00128309 3.46728e-06 1.36991e-07)
(0.00127236 3.12996e-06 1.25404e-07)
(0.00126256 2.80413e-06 1.15261e-07)
(0.00125358 2.48116e-06 1.06258e-07)
(0.00124532 2.15231e-06 9.81422e-08)
(0.00123772 1.80915e-06 9.06853e-08)
(0.0012307 1.4445e-06 8.37033e-08)
(0.00122422 1.05336e-06 7.70444e-08)
(0.00121823 6.34055e-07 7.05897e-08)
(0.00121267 1.89232e-07 6.42655e-08)
(0.00120752 -2.73549e-07 5.80365e-08)
(0.00120273 -7.41678e-07 5.19037e-08)
(0.00119829 -1.19794e-06 4.58833e-08)
(0.00119416 -1.62168e-06 4.00341e-08)
(0.00119033 -1.99003e-06 3.44118e-08)
(0.00118679 -2.28087e-06 2.90664e-08)
(0.00118354 -2.47056e-06 2.41087e-08)
(0.00118058 -2.54988e-06 1.93885e-08)
(0.00117793 -2.47874e-06 1.58341e-08)
(0.00117562 -2.33657e-06 9.47255e-09)
(0.00117376 -1.87367e-06 1.4452e-08)
(0.00117175 -1.81926e-06 6.76435e-09)
(0.00559985 4.82812e-06 0.00029543)
(0.00346868 8.44925e-06 6.88258e-05)
(0.00234275 1.00857e-05 1.55316e-05)
(0.00198873 1.05287e-05 3.09971e-06)
(0.00180301 1.03335e-05 1.3637e-06)
(0.00168879 9.78538e-06 9.54402e-07)
(0.00160837 9.07343e-06 7.68243e-07)
(0.0015474 8.31103e-06 6.29283e-07)
(0.00149928 7.56196e-06 5.21465e-07)
(0.00146014 6.85879e-06 4.39013e-07)
(0.00142758 6.21514e-06 3.75032e-07)
(0.00139999 5.63394e-06 3.24533e-07)
(0.00137626 5.11243e-06 2.83957e-07)
(0.00135561 4.64524e-06 2.50834e-07)
(0.00133744 4.22597e-06 2.23413e-07)
(0.00132132 3.84805e-06 2.0044e-07)
(0.0013069 3.50512e-06 1.81004e-07)
(0.00129392 3.191e-06 1.6441e-07)
(0.00128216 2.89965e-06 1.50121e-07)
(0.00127146 2.62492e-06 1.37711e-07)
(0.00126169 2.36045e-06 1.26822e-07)
(0.00125273 2.09969e-06 1.17154e-07)
(0.00124449 1.83602e-06 1.08444e-07)
(0.0012369 1.56316e-06 1.00468e-07)
(0.00122989 1.27576e-06 9.30348e-08)
(0.00122343 9.70193e-07 8.59953e-08)
(0.00121744 6.45295e-07 7.92385e-08)
(0.00121191 3.03117e-07 7.26813e-08)
(0.00120678 -5.06505e-08 6.63041e-08)
(0.00120204 -4.06595e-07 6.01e-08)
(0.00119764 -7.51928e-07 5.41058e-08)
(0.00119356 -1.0713e-06 4.83579e-08)
(0.0011898 -1.34769e-06 4.29157e-08)
(0.00118634 -1.56493e-06 3.78156e-08)
(0.00118316 -1.70504e-06 3.31601e-08)
(0.0011803 -1.76322e-06 2.8688e-08)
(0.00117772 -1.70656e-06 2.55025e-08)
(0.00117553 -1.60612e-06 1.86964e-08)
(0.00117365 -1.25835e-06 2.45879e-08)
(0.0011718 -1.25409e-06 8.70047e-09)
(0.00559976 3.35121e-06 0.000295428)
(0.00346827 5.87519e-06 6.88239e-05)
(0.00234197 7.04124e-06 1.5526e-05)
(0.00198774 7.35762e-06 3.09124e-06)
(0.00180193 7.22115e-06 1.35302e-06)
(0.00168769 6.8278e-06 9.41774e-07)
(0.00160731 6.31477e-06 7.54217e-07)
(0.0015464 5.76487e-06 6.14423e-07)
(0.00149835 5.22517e-06 5.06251e-07)
(0.00145929 4.71986e-06 4.23827e-07)
(0.0014268 4.25899e-06 3.6017e-07)
(0.00139928 3.8446e-06 3.10185e-07)
(0.00137561 3.47445e-06 2.70261e-07)
(0.00135501 3.14433e-06 2.37856e-07)
(0.00133688 2.8493e-06 2.1118e-07)
(0.00132079 2.58431e-06 1.88955e-07)
(0.0013064 2.34457e-06 1.70239e-07)
(0.00129344 2.12542e-06 1.54327e-07)
(0.00128171 1.92241e-06 1.40677e-07)
(0.00127103 1.73105e-06 1.28859e-07)
(0.00126126 1.54679e-06 1.18511e-07)
(0.00125231 1.36493e-06 1.0934e-07)
(0.00124407 1.18079e-06 1.01073e-07)
(0.00123648 9.89927e-07 9.34959e-08)
(0.00122948 7.88562e-07 8.64126e-08)
(0.00122301 5.74081e-07 7.96689e-08)
(0.00121704 3.45626e-07 7.31473e-08)
(0.00121151 1.04548e-07 6.67737e-08)
(0.0012064 -1.45232e-07 6.05106e-08)
(0.00120168 -3.97129e-07 5.4352e-08)
(0.00119731 -6.42154e-07 4.83294e-08)
(0.00119328 -8.69478e-07 4.24829e-08)
(0.00118957 -1.06697e-06 3.68827e-08)
(0.00118617 -1.2232e-06 3.15613e-08)
(0.00118306 -1.32491e-06 2.66771e-08)
(0.00118027 -1.36917e-06 2.18974e-08)
(0.00117776 -1.33017e-06 1.86628e-08)
(0.00117566 -1.26229e-06 1.13127e-08)
(0.00117379 -1.00581e-06 1.94028e-08)
(0.00117219 -1.0064e-06 -3.54271e-09)
(0.00559971 1.99019e-06 0.000295428)
(0.00346803 3.50311e-06 6.88265e-05)
(0.00234151 4.23882e-06 1.553e-05)
(0.00198714 4.46387e-06 3.09678e-06)
(0.00180125 4.41935e-06 1.36009e-06)
(0.00168697 4.21429e-06 9.4999e-07)
(0.00160658 3.93037e-06 7.63283e-07)
(0.00154568 3.61734e-06 6.24067e-07)
(0.00149766 3.30432e-06 5.16186e-07)
(0.00145864 3.00691e-06 4.33812e-07)
(0.00142618 2.73227e-06 3.7001e-07)
(0.00139868 2.48256e-06 3.19737e-07)
(0.00137504 2.25725e-06 2.79426e-07)
(0.00135447 2.05447e-06 2.46572e-07)
(0.00133636 1.87175e-06 2.19423e-07)
(0.0013203 1.70646e-06 1.96714e-07)
(0.00130593 1.55601e-06 1.77519e-07)
(0.00129299 1.41785e-06 1.61155e-07)
(0.00128126 1.28949e-06 1.47078e-07)
(0.00127059 1.1684e-06 1.34858e-07)
(0.00126084 1.05199e-06 1.2415e-07)
(0.00125189 9.3758e-07 1.14646e-07)
(0.00124366 8.22508e-07 1.06087e-07)
(0.00123608 7.04233e-07 9.82507e-08)
(0.00122908 5.80616e-07 9.09427e-08)
(0.00122262 4.50189e-07 8.40072e-08)
(0.00121665 3.12482e-07 7.73348e-08)
(0.00121114 1.68332e-07 7.08403e-08)
(0.00120604 2.003e-08 6.44938e-08)
(0.00120134 -1.28606e-07 5.82927e-08)
(0.001197 -2.72361e-07 5.22665e-08)
(0.00119299 -4.05007e-07 4.64514e-08)
(0.00118932 -5.19524e-07 4.09197e-08)
(0.00118595 -6.09432e-07 3.56953e-08)
(0.00118289 -6.67064e-07 3.09358e-08)
(0.00118014 -6.91394e-07 2.62518e-08)
(0.00117767 -6.67205e-07 2.31869e-08)
(0.00117563 -6.29009e-07 1.55848e-08)
(0.00117374 -4.83574e-07 2.41659e-08)
(0.00117223 -4.96455e-07 -2.93172e-09)
(0.00559969 6.53516e-07 0.000295425)
(0.00346791 1.14437e-06 6.8825e-05)
(0.00234128 1.38021e-06 1.55283e-05)
(0.00198683 1.44107e-06 3.09449e-06)
(0.00180091 1.41187e-06 1.35718e-06)
(0.00168662 1.32864e-06 9.46342e-07)
(0.00160624 1.22e-06 7.59039e-07)
(0.00154536 1.10342e-06 6.19407e-07)
(0.00149736 9.89144e-07 5.11265e-07)
(0.00145836 8.82549e-07 4.28771e-07)
(0.00142593 7.85956e-07 3.64957e-07)
(0.00139845 6.99872e-07 3.14765e-07)
(0.00137484 6.23788e-07 2.74596e-07)
(0.00135428 5.56734e-07 2.41925e-07)
(0.00133619 4.97548e-07 2.14982e-07)
(0.00132014 4.45049e-07 1.92492e-07)
(0.00130578 3.98104e-07 1.73529e-07)
(0.00129285 3.55648e-07 1.57381e-07)
(0.00128113 3.16653e-07 1.43516e-07)
(0.00127046 2.80133e-07 1.31498e-07)
(0.00126071 2.45104e-07 1.20978e-07)
(0.00125177 2.1058e-07 1.11649e-07)
(0.00124354 1.75582e-07 1.03257e-07)
(0.00123596 1.39196e-07 9.55738e-08)
(0.00122896 1.00649e-07 8.84036e-08)
(0.0012225 5.93854e-08 8.15927e-08)
(0.00121653 1.52055e-08 7.50274e-08)
(0.00121102 -3.16573e-08 6.86232e-08)
(0.00120593 -8.04526e-08 6.23495e-08)
(0.00120123 -1.29909e-07 5.6195e-08)
(0.0011969 -1.78264e-07 5.01895e-08)
(0.00119291 -2.23364e-07 4.43767e-08)
(0.00118925 -2.62771e-07 3.88218e-08)
(0.0011859 -2.94177e-07 3.35482e-08)
(0.00118286 -3.14807e-07 2.87414e-08)
(0.00118014 -3.24108e-07 2.39823e-08)
(0.00117769 -3.16296e-07 2.09175e-08)
(0.00117568 -3.02744e-07 1.31515e-08)
(0.00117379 -2.47442e-07 2.24602e-08)
(0.00117237 -2.4565e-07 -6.98718e-09)
(0.00559969 -6.53508e-07 0.000295425)
(0.00346791 -1.14436e-06 6.8825e-05)
(0.00234128 -1.38019e-06 1.55283e-05)
(0.00198683 -1.44105e-06 3.09449e-06)
(0.00180091 -1.41184e-06 1.35718e-06)
(0.00168662 -1.3286e-06 9.46341e-07)
(0.00160624 -1.21995e-06 7.59039e-07)
(0.00154536 -1.10336e-06 6.19406e-07)
(0.00149736 -9.89064e-07 5.11268e-07)
(0.00145836 -8.82453e-07 4.28771e-07)
(0.00142593 -7.85838e-07 3.64958e-07)
(0.00139845 -6.99717e-07 3.14767e-07)
(0.00137484 -6.23592e-07 2.74596e-07)
(0.00135428 -5.56489e-07 2.41926e-07)
(0.00133619 -4.97249e-07 2.14983e-07)
(0.00132014 -4.44685e-07 1.92492e-07)
(0.00130578 -3.97665e-07 1.73527e-07)
(0.00129285 -3.55123e-07 1.57382e-07)
(0.00128113 -3.1606e-07 1.43515e-07)
(0.00127046 -2.79482e-07 1.31498e-07)
(0.00126071 -2.44424e-07 1.20982e-07)
(0.00125177 -2.09903e-07 1.1165e-07)
(0.00124354 -1.74971e-07 1.03259e-07)
(0.00123596 -1.38696e-07 9.55725e-08)
(0.00122896 -1.00311e-07 8.84061e-08)
(0.0012225 -5.92627e-08 8.15916e-08)
(0.00121653 -1.53215e-08 7.50262e-08)
(0.00121102 3.12933e-08 6.86266e-08)
(0.00120593 7.98626e-08 6.23474e-08)
(0.00120123 1.29149e-07 5.61946e-08)
(0.0011969 1.7739e-07 5.01875e-08)
(0.00119291 2.22473e-07 4.43751e-08)
(0.00118925 2.61969e-07 3.88214e-08)
(0.0011859 2.93568e-07 3.35503e-08)
(0.00118286 3.14482e-07 2.87412e-08)
(0.00118014 3.24131e-07 2.39803e-08)
(0.00117769 3.16704e-07 2.09185e-08)
(0.00117568 3.03608e-07 1.31508e-08)
(0.00117379 2.48572e-07 2.24595e-08)
(0.00117237 2.475e-07 -6.98384e-09)
(0.00559971 -1.99018e-06 0.000295428)
(0.00346803 -3.5031e-06 6.88265e-05)
(0.00234151 -4.23881e-06 1.553e-05)
(0.00198714 -4.46384e-06 3.09678e-06)
(0.00180125 -4.41932e-06 1.3601e-06)
(0.00168697 -4.21426e-06 9.49987e-07)
(0.00160658 -3.93032e-06 7.63288e-07)
(0.00154568 -3.61728e-06 6.24065e-07)
(0.00149766 -3.30424e-06 5.16185e-07)
(0.00145864 -3.00682e-06 4.33814e-07)
(0.00142618 -2.73214e-06 3.7001e-07)
(0.00139868 -2.4824e-06 3.19738e-07)
(0.00137504 -2.25706e-06 2.79426e-07)
(0.00135447 -2.05423e-06 2.46575e-07)
(0.00133636 -1.87145e-06 2.19422e-07)
(0.0013203 -1.7061e-06 1.9671e-07)
(0.00130593 -1.55557e-06 1.77523e-07)
(0.00129299 -1.41734e-06 1.61158e-07)
(0.00128126 -1.28892e-06 1.47078e-07)
(0.00127059 -1.16777e-06 1.34863e-07)
(0.00126084 -1.05132e-06 1.24151e-07)
(0.00125189 -9.36926e-07 1.14649e-07)
(0.00124366 -8.21911e-07 1.06087e-07)
(0.00123608 -7.03739e-07 9.82479e-08)
(0.00122908 -5.80279e-07 9.09382e-08)
(0.00122262 -4.50048e-07 8.40048e-08)
(0.00121665 -3.12569e-07 7.73321e-08)
(0.00121114 -1.68649e-07 7.08364e-08)
(0.00120604 -2.05591e-08 6.44912e-08)
(0.00120134 1.27909e-07 5.82917e-08)
(0.001197 2.71579e-07 5.22625e-08)
(0.00119299 4.04212e-07 4.64511e-08)
(0.00118932 5.18827e-07 4.09189e-08)
(0.00118595 6.08913e-07 3.56916e-08)
(0.00118289 6.66817e-07 3.09357e-08)
(0.00118014 6.91484e-07 2.62531e-08)
(0.00117767 6.67664e-07 2.31878e-08)
(0.00117563 6.29897e-07 1.55876e-08)
(0.00117374 4.84728e-07 2.41673e-08)
(0.00117223 4.98266e-07 -2.91531e-09)
(0.00559976 -3.3512e-06 0.000295428)
(0.00346827 -5.87517e-06 6.88239e-05)
(0.00234197 -7.04122e-06 1.5526e-05)
(0.00198774 -7.35759e-06 3.09124e-06)
(0.00180193 -7.22112e-06 1.35302e-06)
(0.00168769 -6.82776e-06 9.41774e-07)
(0.00160731 -6.31473e-06 7.54217e-07)
(0.0015464 -5.76481e-06 6.14426e-07)
(0.00149835 -5.22509e-06 5.06253e-07)
(0.00145929 -4.71976e-06 4.23829e-07)
(0.0014268 -4.25887e-06 3.60171e-07)
(0.00139928 -3.84445e-06 3.10185e-07)
(0.00137561 -3.47427e-06 2.70261e-07)
(0.00135501 -3.1441e-06 2.37855e-07)
(0.00133688 -2.84901e-06 2.11179e-07)
(0.00132079 -2.58396e-06 1.88954e-07)
(0.0013064 -2.34414e-06 1.70237e-07)
(0.00129344 -2.12493e-06 1.54326e-07)
(0.00128171 -1.92185e-06 1.40677e-07)
(0.00127103 -1.73044e-06 1.28858e-07)
(0.00126126 -1.54615e-06 1.18512e-07)
(0.00125231 -1.3643e-06 1.09336e-07)
(0.00124407 -1.18021e-06 1.01076e-07)
(0.00123648 -9.8944e-07 9.34948e-08)
(0.00122948 -7.88225e-07 8.64125e-08)
(0.00122301 -5.73926e-07 7.96664e-08)
(0.00121704 -3.45673e-07 7.31472e-08)
(0.00121151 -1.04802e-07 6.67723e-08)
(0.0012064 1.44778e-07 6.05104e-08)
(0.00120168 3.96533e-07 5.43521e-08)
(0.00119731 6.41478e-07 4.83276e-08)
(0.00119328 8.68809e-07 4.24801e-08)
(0.00118957 1.06639e-06 3.68803e-08)
(0.00118617 1.22279e-06 3.15606e-08)
(0.00118306 1.32476e-06 2.66756e-08)
(0.00118027 1.36934e-06 2.19006e-08)
(0.00117776 1.33069e-06 1.86636e-08)
(0.00117566 1.26319e-06 1.13157e-08)
(0.00117379 1.00697e-06 1.94005e-08)
(0.00117219 1.00816e-06 -3.51708e-09)
(0.00559985 -4.82811e-06 0.00029543)
(0.00346868 -8.44923e-06 6.88258e-05)
(0.00234275 -1.00856e-05 1.55316e-05)
(0.00198873 -1.05287e-05 3.09971e-06)
(0.00180301 -1.03335e-05 1.3637e-06)
(0.00168879 -9.78535e-06 9.54402e-07)
(0.00160837 -9.07339e-06 7.68245e-07)
(0.0015474 -8.31097e-06 6.29285e-07)
(0.00149928 -7.56189e-06 5.21467e-07)
(0.00146014 -6.85871e-06 4.39014e-07)
(0.00142758 -6.21503e-06 3.75035e-07)
(0.00139999 -5.6338e-06 3.24533e-07)
(0.00137626 -5.11226e-06 2.83955e-07)
(0.00135561 -4.64503e-06 2.50831e-07)
(0.00133744 -4.2257e-06 2.2341e-07)
(0.00132132 -3.84772e-06 2.00438e-07)
(0.0013069 -3.50472e-06 1.81006e-07)
(0.00129392 -3.19054e-06 1.6441e-07)
(0.00128216 -2.89912e-06 1.50121e-07)
(0.00127146 -2.62433e-06 1.37713e-07)
(0.00126169 -2.35985e-06 1.26822e-07)
(0.00125273 -2.09909e-06 1.17153e-07)
(0.00124449 -1.83546e-06 1.08442e-07)
(0.0012369 -1.56268e-06 1.00468e-07)
(0.0012299 -1.27541e-06 9.30355e-08)
(0.00122343 -9.69994e-07 8.59945e-08)
(0.00121745 -6.45274e-07 7.92348e-08)
(0.00121191 -3.03277e-07 7.26812e-08)
(0.00120679 5.03311e-08 6.63006e-08)
(0.00120204 4.06161e-07 6.00988e-08)
(0.00119764 7.51432e-07 5.41024e-08)
(0.00119357 1.07082e-06 4.83495e-08)
(0.0011898 1.3473e-06 4.29155e-08)
(0.00118634 1.5647e-06 3.78107e-08)
(0.00118316 1.70504e-06 3.31606e-08)
(0.0011803 1.7635e-06 2.86838e-08)
(0.00117772 1.70715e-06 2.55031e-08)
(0.00117553 1.60704e-06 1.86979e-08)
(0.00117365 1.2595e-06 2.45886e-08)
(0.0011718 1.25575e-06 8.73874e-09)
(0.00559996 -6.37931e-06 0.000295427)
(0.00346924 -1.10402e-05 6.88153e-05)
(0.00234381 -1.29929e-05 1.55186e-05)
(0.00199008 -1.33996e-05 3.08331e-06)
(0.00180451 -1.30073e-05 1.34402e-06)
(0.00169035 -1.22047e-05 9.32569e-07)
(0.00160993 -1.1231e-05 7.45153e-07)
(0.00154892 -1.0224e-05 6.05699e-07)
(0.00150074 -9.25644e-06 4.98009e-07)
(0.00146154 -8.36242e-06 4.16148e-07)
(0.00142891 -7.55348e-06 3.53079e-07)
(0.00140125 -6.82924e-06 3.03673e-07)
(0.00137746 -6.18346e-06 2.64294e-07)
(0.00135675 -5.60753e-06 2.32386e-07)
(0.00133853 -5.09226e-06 2.06161e-07)
(0.00132236 -4.62875e-06 1.8434e-07)
(0.0013079 -4.20862e-06 1.65974e-07)
(0.00129488 -3.82389e-06 1.50373e-07)
(0.00128309 -3.4668e-06 1.36993e-07)
(0.00127236 -3.12943e-06 1.25405e-07)
(0.00126256 -2.80356e-06 1.15261e-07)
(0.00125358 -2.48059e-06 1.06258e-07)
(0.00124533 -2.15176e-06 9.81412e-08)