/*--------------------------------*- C++ -*----------------------------------*\
| =========                 |                                                 |
| \\      /  F ield         | OpenFOAM: The Open Source CFD Toolbox           |
|  \\    /   O peration     | Version:  5.0                                   |
|   \\  /    A nd           | Web:      www.OpenFOAM.org                      |
|    \\/     M anipulation  |                                                 |
\*---------------------------------------------------------------------------*/
FoamFile
{
    version     2.0;
    format      ascii;
    class       volScalarField;
    location    "950/air";
    object      alphat;
}
// * * * * * * * * * * * * * * * * * * * * * * * * * * * * * * * * * * * * * //

dimensions      [1 -1 -1 0 0 0 0];

internalField   nonuniform List<scalar> 
243000
(
0.000144685
0.000155061
0.000155942
0.000154225
0.000150665
0.000145877
0.000140336
0.000134393
0.000128309
0.000122352
0.00011671
0.000111719
0.000107642
0.000104828
0.000103321
0.000102748
0.000102367
0.000101852
0.000101141
0.000100345
9.95573e-05
9.88438e-05
9.82985e-05
9.81288e-05
9.80572e-05
9.73889e-05
9.50674e-05
8.94717e-05
0.000378361
9.40328e-05
0.00063882
0.000705918
0.000733233
0.000749172
0.000756887
0.000758761
0.000756021
0.000749453
0.000739698
0.000727696
0.000714514
0.000701959
0.000691131
0.000683612
0.000678455
0.000672512
0.00066175
0.000646669
0.000628424
0.000608857
0.000588783
0.000568624
0.000548986
0.000531656
0.000516717
0.000500027
0.000477942
0.000442396
0.000402762
0.000401971
0.000684761
0.000759175
0.000791965
0.000811796
0.000822595
0.000827204
0.000826833
0.000822411
0.000814615
0.000804505
0.000793182
0.000782451
0.000773284
0.000767076
0.000762305
0.000755209
0.00074153
0.000722435
0.000699799
0.000675871
0.000651736
0.000627869
0.000604697
0.000583646
0.000565216
0.000546378
0.000524052
0.000492199
0.000450997
0.00042632
0.000680837
0.000774436
0.000819891
0.000845537
0.000861303
0.000870278
0.000873796
0.000872797
0.000868141
0.000861004
0.000852522
0.000844503
0.000837785
0.000833529
0.00082977
0.000822389
0.000807018
0.000785284
0.000759561
0.00073239
0.00070508
0.000678204
0.000652097
0.000627923
0.000606164
0.000584641
0.000560878
0.000530321
0.000490939
0.000456704
0.000646984
0.000760741
0.000821751
0.000859386
0.000881916
0.000896525
0.000904962
0.000908354
0.000907608
0.000904109
0.000899015
0.000894146
0.000890203
0.000888109
0.000885529
0.000878192
0.000861837
0.00083839
0.000810545
0.000781031
0.000751335
0.000722131
0.000693708
0.000667028
0.000642511
0.000618286
0.000592809
0.000562271
0.000523998
0.000486088
0.000614031
0.000729366
0.000806329
0.000855568
0.000888598
0.000910724
0.000924862
0.000933354
0.000937149
0.00093772
0.000936312
0.000934801
0.000933751
0.000933856
0.000932481
0.000925338
0.000908451
0.000883921
0.000854638
0.000823461
0.000792015
0.000761045
0.000730837
0.000702185
0.000675442
0.000648772
0.000621608
0.00059055
0.000552803
0.000513038
0.000577209
0.000696768
0.000779021
0.0008405
0.000883612
0.000914972
0.000936309
0.00095048
0.00095926
0.000964257
0.000966711
0.00096864
0.000970475
0.000972774
0.000972556
0.000965702
0.000948585
0.000923397
0.000893188
0.000860872
0.000828169
0.000795884
0.000764314
0.000734115
0.0007056
0.000677031
0.000648195
0.000616422
0.000578899
0.000538261
0.000544157
0.000660154
0.000751263
0.000817596
0.000870659
0.000910974
0.000941022
0.000961501
0.000975644
0.000985292
0.000991739
0.000997121
0.0010018
0.00100621
0.00100711
0.0010006
0.000983454
0.000957937
0.000927182
0.000894136
0.000860565
0.000827327
0.00079472
0.000763324
0.000733397
0.000703349
0.000673013
0.000640513
0.000603085
0.000562032
0.00052788
0.000618865
0.000721513
0.000794973
0.000852146
0.000901126
0.000939357
0.000967751
0.000987471
0.00100195
0.00101246
0.00102128
0.0010287
0.00103514
0.0010371
0.00103098
0.00101396
0.000988376
0.000957375
0.00092391
0.000889773
0.000855862
0.000822506
0.000790203
0.000759162
0.000727947
0.000696314
0.00066316
0.000625818
0.000584451
0.000545276
0.000579864
0.000688451
0.00077127
0.00083389
0.000887056
0.000933267
0.000969523
0.000995531
0.00101501
0.00102963
0.00104187
0.00105194
0.00106029
0.00106327
0.00105757
0.00104081
0.00101537
0.000984353
0.000950716
0.000916254
0.000881909
0.000848039
0.000815074
0.000783166
0.000751036
0.000718303
0.000684587
0.000647307
0.000605648
0.000573855
0.000559988
0.000651825
0.000745352
0.000815404
0.000872446
0.00092367
0.000967562
0.00100065
0.00102506
0.00104386
0.00105947
0.00107207
0.00108223
0.00108615
0.00108091
0.00106453
0.0010394
0.00100859
0.000974982
0.000940397
0.000905803
0.000871616
0.000838199
0.000805645
0.00077281
0.000739155
0.000704974
0.000667689
0.000625818
0.000607142
0.000581256
0.000617261
0.000716515
0.000795886
0.000858227
0.000911936
0.000962764
0.00100301
0.00103258
0.00105558
0.00107452
0.00108955
0.00110138
0.00110618
0.00110143
0.00108552
0.00106087
0.00103044
0.000997041
0.000962494
0.000927812
0.000893469
0.000859785
0.000826781
0.000793432
0.000759028
0.000724482
0.000687198
0.000645281
0.000641958
0.000613691
0.00059721
0.000685158
0.000774668
0.00084385
0.000901296
0.000955751
0.00100275
0.00103816
0.00106512
0.00108734
0.0011047
0.0011181
0.00112373
0.00111949
0.00110412
0.00108008
0.00105019
0.00101714
0.000982774
0.000948138
0.000913767
0.000879969
0.000846712
0.000813032
0.00077804
0.000743253
0.000705959
0.000664479
0.000677064
0.000649352
0.000615218
0.000655518
0.000751388
0.000828862
0.000891055
0.000947217
0.00100069
0.00104189
0.00107284
0.00109821
0.00111782
0.00113265
0.00113906
0.00113536
0.0011206
0.00109726
0.00106804
0.00103549
0.00100141
0.000966944
0.000932676
0.000898919
0.000865567
0.000831719
0.000796283
0.000761322
0.000724021
0.00068264
0.000712162
0.000685719
0.000648263
0.000636638
0.000726585
0.000812901
0.000880847
0.000939501
0.000997158
0.00104402
0.00107907
0.0011074
0.00112912
0.00114524
0.0011524
0.00114929
0.0011352
0.00111261
0.00108415
0.00105224
0.00101857
0.00098439
0.000950355
0.000916773
0.000883463
0.000849594
0.000813845
0.00077874
0.00074154
0.000700229
0.000747165
0.000721531
0.000683418
0.00064093
0.000702649
0.000795794
0.000870412
0.000932227
0.000992482
0.00104472
0.00108396
0.00111509
0.00113878
0.00115608
0.00116395
0.00116146
0.0011481
0.00112633
0.00109869
0.0010675
0.0010344
0.00100063
0.000966953
0.000933672
0.000900524
0.000866757
0.000830809
0.00079565
0.000758612
0.000717405
0.000782019
0.000756626
0.000719099
0.000670306
0.000684871
0.000777809
0.000859614
0.000925233
0.000986915
0.00104422
0.00108759
0.00112142
0.00114694
0.00116531
0.00117386
0.00117203
0.00115946
0.00113857
0.0011118
0.00108142
0.00104899
0.00101578
0.000982608
0.00094974
0.000916883
0.000883308
0.00084746
0.000812218
0.000775349
0.000734288
0.000816687
0.000791038
0.000754017
0.000703512
0.000677932
0.000759928
0.000848456
0.000918417
0.000980837
0.00104281
0.00109007
0.00112651
0.00115367
0.00117303
0.00118224
0.00118112
0.00116941
0.00114947
0.00112364
0.00109413
0.00106248
0.00102995
0.000997406
0.00096509
0.000932655
0.000899412
0.000863852
0.000828564
0.000791854
0.000750979
0.000851113
0.000824794
0.000787832
0.000736404
0.000685796
0.000743949
0.000837077
0.000911747
0.000975642
0.00104061
0.00109141
0.0011304
0.00115905
0.00117932
0.00118919
0.00118884
0.00117806
0.00115913
0.00113434
0.0011058
0.001075
0.00104326
0.00101146
0.000979822
0.000947964
0.0009152
0.000880057
0.000844773
0.000808227
0.000767525
0.000885245
0.000857937
0.000820665
0.000768854
0.00070691
0.000732437
0.000825776
0.00090522
0.000970798
0.00103765
0.00109143
0.00113296
0.00116306
0.00118421
0.00119476
0.00119525
0.00118547
0.0011677
0.00114404
0.00111654
0.0010867
0.00105585
0.0010249
0.000994066
0.000962938
0.000930824
0.000896238
0.000860969
0.000824577
0.000784019
0.000919059
0.000890498
0.000852578
0.000800414
0.000734704
0.000727301
0.000815035
0.000898875
0.000966212
0.00103386
0.00109033
0.00113404
0.00116574
0.0011877
0.00119898
0.00120039
0.00119176
0.00117525
0.00115284
0.00112649
0.00109771
0.00106787
0.00103789
0.00100797
0.000977734
0.000946458
0.000912596
0.000877326
0.000841039
0.000800593
0.000952459
0.000922503
0.000883626
0.000831061
0.000763357
0.000729162
0.000805439
0.000892731
0.000961761
0.0010292
0.001088
0.00113348
0.00116664
0.00118973
0.00120176
0.00120425
0.0011969
0.00118181
0.00116082
0.00113577
0.00110818
0.00107949
0.00105058
0.0010217
0.00099251
0.000962264
0.000929319
0.000894003
0.000857734
0.000817323
0.000985493
0.000953996
0.000914021
0.000861347
0.000791864
0.000738752
0.000797632
0.000886837
0.000957539
0.00102377
0.00108415
0.00113118
0.0011656
0.00118976
0.00120285
0.00120659
0.00120073
0.00118728
0.0011679
0.00114437
0.00111819
0.0010908
0.00106313
0.00103543
0.00100743
0.000978367
0.00094651
0.000911121
0.000874821
0.000834271
0.00101802
0.000985078
0.000944621
0.000892154
0.000819653
0.000752673
0.000792217
0.000881698
0.000953952
0.0010185
0.00107835
0.00112663
0.00116215
0.00118736
0.00120152
0.00120671
0.00120257
0.00119111
0.00117363
0.00115194
0.00112747
0.00110166
0.00107546
0.00104915
0.00102249
0.000994723
0.000964058
0.000928737
0.000892352
0.000851578
0.00105043
0.00101767
0.00097716
0.00092153
0.000845943
0.00076932
0.000790019
0.000878493
0.00095152
0.00101464
0.00107071
0.00111889
0.00115493
0.00118092
0.00119614
0.00120288
0.00120076
0.00119159
0.00117664
0.00115721
0.00113489
0.00111107
0.00108669
0.00106202
0.00103691
0.00101057
0.000981165
0.000946712
0.000910461
0.000869369
0.00108225
0.00104942
0.00100716
0.000949525
0.000871423
0.000788033
0.000792119
0.000878848
0.000951099
0.00101345
0.00106685
0.00111193
0.00114595
0.00117099
0.00118676
0.00119483
0.00119513
0.00118884
0.00117686
0.00116054
0.00114088
0.00111911
0.00109617
0.00107257
0.00104884
0.00102399
0.000996206
0.000965149
0.000929977
0.000888514
0.0011141
0.00108172
0.00103901
0.000980351
0.000900718
0.000813985
0.000806379
0.000890115
0.000960426
0.0010225
0.0010739
0.0011164
0.00114901
0.00117343
0.00118981
0.00119905
0.00120143
0.00119773
0.00118857
0.00117497
0.00115783
0.00113819
0.00111689
0.00109448
0.00107134
0.00104711
0.00102064
0.000990966
0.000956053
0.000913468
0.00115692
0.00112516
0.00108324
0.00102631
0.000950302
0.000869198
0.000857817
0.000935107
0.00100228
0.00106266
0.00111206
0.00115187
0.00118268
0.00120598
0.00122239
0.00123193
0.00123544
0.00123348
0.00122635
0.00121481
0.0011997
0.00118188
0.00116207
0.00114071
0.00111805
0.00109386
0.00106742
0.00103754
0.00100146
0.00095655
0.00124237
0.00121712
0.00118504
0.00114337
0.0010905
0.00103767
0.0010372
0.00109565
0.00115112
0.00120124
0.00124283
0.00127543
0.00130055
0.00131927
0.00133264
0.00133984
0.00134205
0.00133976
0.00133312
0.00132264
0.001309
0.00129286
0.00127478
0.00125503
0.00123366
0.00120955
0.00118287
0.00115282
0.00111772
0.00107382
0.00154223
0.00153774
0.00153213
0.00152358
0.00151137
0.0015021
0.00150904
0.00152834
0.00154585
0.0015615
0.00157456
0.00158547
0.00159378
0.00159929
0.00160396
0.00160525
0.00160459
0.00160285
0.00159975
0.00159574
0.00159095
0.00158582
0.00158063
0.00157547
0.00156965
0.0015562
0.0015408
0.00152422
0.00150876
0.00148703
0.000177622
0.000191154
0.000194296
0.000193559
0.000190369
0.000185601
0.000179778
0.000173308
0.000166512
0.000159767
0.000153329
0.000147533
0.000142531
0.000138536
0.00013535
0.000132337
0.000128664
0.000124242
0.000119133
0.000113562
0.000107533
0.000101006
9.48586e-05
9.02116e-05
8.76252e-05
8.56454e-05
8.66324e-05
8.38059e-05
9.28618e-05
0.000104667
0.000680795
0.000797587
0.000809618
0.000792224
0.000766551
0.00073929
0.00071359
0.000689747
0.000667827
0.000647635
0.000627818
0.000608868
0.000588282
0.000564828
0.000534119
0.000494196
0.000446286
0.000403515
0.000367393
0.000340874
0.000320267
0.000302371
0.000288349
0.000287581
0.000299119
0.000326806
0.000351671
0.000353038
0.000395564
0.000463365
0.00111899
0.00130206
0.00137391
0.00139164
0.00138599
0.00137055
0.0013507
0.00132757
0.00130237
0.00127582
0.00124607
0.00121371
0.00117462
0.00112675
0.00106359
0.000981087
0.000882394
0.000792107
0.00071609
0.000658487
0.000615137
0.00057851
0.000546734
0.000535476
0.000545952
0.000571258
0.000582453
0.000552963
0.00054259
0.000611219
0.00137025
0.00164544
0.00177251
0.00184033
0.00187739
0.0018989
0.00190828
0.00190536
0.00189102
0.0018681
0.00183611
0.00179461
0.00173964
0.00166872
0.00157587
0.00145523
0.00131156
0.00117807
0.00106431
0.000976048
0.000907969
0.000850333
0.000799739
0.000773629
0.000775647
0.000790524
0.000780217
0.000718952
0.000654035
0.000678686
0.00142863
0.00175025
0.00199255
0.00215111
0.00224395
0.0023198
0.00237327
0.00240428
0.00241216
0.00239943
0.0023693
0.00232284
0.00225529
0.00216488
0.00204647
0.00189309
0.00171177
0.00154105
0.00139405
0.00127804
0.00118703
0.00111017
0.00104227
0.00100012
0.000989806
0.000995235
0.000964957
0.000874788
0.000765992
0.00074518
0.00135244
0.00175743
0.00206939
0.00230094
0.00250346
0.00265078
0.00275719
0.00283104
0.00286853
0.00287218
0.00284642
0.00279734
0.00272032
0.00261386
0.00247394
0.00229273
0.00208139
0.00187887
0.00170293
0.00156227
0.00145073
0.00135668
0.00127359
0.00121617
0.00119202
0.00118885
0.00114183
0.0010268
0.000882507
0.000821654
0.00121753
0.00167319
0.00206627
0.00237773
0.00264643
0.00289703
0.00307294
0.00319538
0.0032671
0.00329113
0.00327131
0.00322152
0.00313769
0.00301869
0.00286112
0.00265703
0.00242207
0.00219272
0.00199198
0.00182963
0.00169981
0.00159046
0.00149406
0.00142282
0.00138462
0.00137094
0.00131196
0.00117653
0.0010027
0.000905444
0.00105926
0.00152499
0.00198687
0.00238975
0.00273168
0.00305128
0.00333317
0.0035055
0.00361435
0.00366007
0.00364983
0.00359948
0.0035113
0.00338303
0.0032115
0.00298893
0.00273566
0.00248459
0.00226281
0.00208135
0.00193533
0.00181234
0.00170421
0.00162073
0.00156913
0.00154334
0.00147598
0.00132442
0.00112561
0.00099349
0.000908887
0.00133955
0.00184887
0.00233277
0.00276379
0.00315894
0.00351565
0.00376795
0.00391494
0.00398408
0.00398444
0.00393654
0.00384481
0.0037106
0.00352835
0.00329135
0.00302361
0.00275659
0.00251694
0.00231869
0.00215825
0.00202305
0.00190461
0.00181049
0.00174665
0.00170862
0.00163502
0.00147102
0.00125137
0.00108548
0.000792416
0.00114569
0.00167932
0.00222187
0.00273822
0.00322002
0.00364575
0.00398447
0.00417033
0.00426651
0.00427905
0.00423733
0.0041424
0.00400484
0.00381458
0.00356704
0.00328816
0.00300976
0.00275553
0.00254281
0.00236929
0.00222325
0.00209586
0.00199264
0.00191802
0.00186852
0.00179035
0.00161701
0.0013802
0.00118213
0.00073444
0.000981654
0.00149691
0.00208149
0.00266463
0.00322957
0.00373693
0.00414558
0.0043872
0.00451003
0.0045387
0.00450479
0.00440786
0.00426862
0.00407302
0.00381837
0.00353143
0.00324477
0.00297981
0.00275463
0.00256928
0.00241356
0.00227859
0.00216776
0.00208398
0.00202431
0.00194314
0.00176311
0.00151227
0.00128419
0.00075277
0.000888835
0.00132047
0.00192595
0.00256239
0.00319869
0.00378647
0.00425649
0.00456937
0.00471561
0.00476614
0.0047407
0.00464465
0.00450464
0.00430621
0.0040474
0.00375518
0.00346258
0.00319053
0.00295492
0.00275924
0.00259457
0.00245337
0.00233639
0.00224509
0.00217686
0.00209434
0.00191
0.00164783
0.00139232
0.000827408
0.000855083
0.00117223
0.00176728
0.00244152
0.0031385
0.0037954
0.00433885
0.00471202
0.00488948
0.00496141
0.00494674
0.00485515
0.00471523
0.00451617
0.00425574
0.00396074
0.00366434
0.0033878
0.00314429
0.00293969
0.00276727
0.0026207
0.00249897
0.00240182
0.00232682
0.00224458
0.00205805
0.00178697
0.00150716
0.000945954
0.000923725
0.00109578
0.00161713
0.00231157
0.00305708
0.00377732
0.00439263
0.00481876
0.00504135
0.00512638
0.00512577
0.00504094
0.0049021
0.00470438
0.00444451
0.00414902
0.00385084
0.00357146
0.00332331
0.00311108
0.0029322
0.00278112
0.00265589
0.00255441
0.00247449
0.00239415
0.0022074
0.00192957
0.00162833
0.00110205
0.00104679
0.00107513
0.00148968
0.00218154
0.00296273
0.00373864
0.00441395
0.00489257
0.00516092
0.00526496
0.00528011
0.00520334
0.00506592
0.00487153
0.00461417
0.00432036
0.00402239
0.00374188
0.00349129
0.0032736
0.00308952
0.002935
0.00280732
0.00270285
0.00261991
0.00254301
0.0023579
0.0020753
0.00175509
0.00129625
0.00120924
0.00116652
0.00141601
0.0020605
0.0028631
0.0036854
0.00441377
0.0049478
0.00525351
0.0053809
0.00540987
0.00534253
0.0052065
0.00501733
0.00476432
0.00447436
0.00417869
0.00389882
0.00364733
0.00342712
0.003239
0.00308219
0.00295304
0.00284678
0.00276264
0.00269059
0.00250898
0.00222351
0.00188695
0.0015271
0.00140772
0.00131033
0.00137514
0.00195657
0.00276491
0.00362345
0.00439856
0.0049854
0.00532214
0.00547754
0.00551409
0.00545697
0.00532284
0.00514016
0.00489344
0.00460961
0.00431851
0.00404113
0.00379059
0.00357012
0.00337962
0.00322189
0.0030922
0.00298527
0.00290167
0.00283496
0.00265941
0.00237313
0.00202375
0.00179035
0.00163768
0.0014896
0.00144483
0.00188339
0.00267445
0.0035581
0.00437248
0.00500512
0.00536803
0.00554874
0.00558961
0.00554275
0.00541258
0.00523684
0.00499851
0.00472331
0.00443934
0.00416702
0.00391915
0.00370008
0.00350959
0.00335233
0.00322299
0.00311657
0.00303517
0.00297349
0.00280711
0.00252235
0.00216418
0.00207821
0.00189225
0.00169737
0.00156162
0.00184902
0.00259636
0.00349359
0.00433837
0.00500361
0.00539234
0.00558589
0.0056333
0.00559545
0.00547057
0.00530225
0.0050745
0.00481074
0.00453665
0.00427243
0.00402936
0.00381363
0.0036255
0.00346993
0.00334217
0.0032376
0.0031601
0.00310366
0.00294915
0.00266834
0.0023039
0.00237902
0.00216183
0.00192556
0.00172575
0.00182429
0.00253346
0.00343269
0.00429801
0.00498605
0.005387
0.00557409
0.00563701
0.00560731
0.00548889
0.00532833
0.00511362
0.00486431
0.004604
0.00435036
0.00411497
0.0039053
0.00372119
0.00356895
0.00344444
0.00334343
0.00327174
0.00322111
0.00308119
0.00280661
0.00244098
0.00267677
0.00243321
0.00216094
0.00190027
0.00188554
0.0024923
0.00337659
0.00425246
0.00493495
0.00532359
0.00551748
0.00558961
0.00556615
0.00545613
0.00530273
0.00510422
0.00487325
0.00462996
0.00439067
0.00416621
0.00396416
0.00378744
0.00364101
0.00352186
0.00342675
0.00336278
0.00331894
0.00319664
0.00293188
0.00257086
0.00295131
0.0026901
0.00239122
0.00207987
0.00196306
0.00247081
0.00332334
0.00417231
0.00480328
0.00518915
0.00540278
0.00547309
0.00545443
0.00535533
0.0052088
0.00503035
0.00482131
0.00459813
0.0043764
0.00416619
0.00397641
0.00381131
0.00367386
0.00356273
0.0034769
0.00342197
0.00338649
0.00328537
0.0030356
0.00268673
0.00317918
0.00291356
0.00260325
0.00224881
0.00204899
0.00242994
0.00324525
0.00400905
0.00460035
0.00500534
0.00519816
0.00526428
0.00525029
0.00516299
0.00502601
0.00487198
0.00468644
0.00448629
0.00428555
0.00409542
0.00392337
0.00377357
0.00364915
0.00355027
0.003477
0.00343311
0.00340819
0.00333176
0.00310483
0.00277841
0.00333716
0.00308242
0.00277308
0.00238751
0.00213172
0.00238359
0.00308901
0.00377608
0.00433962
0.00470466
0.00487744
0.00494021
0.00492876
0.00485728
0.00473818
0.00461113
0.00444959
0.00427635
0.00410117
0.00393418
0.0037831
0.00365217
0.00354487
0.00346257
0.00340601
0.00337711
0.00336586
0.00331653
0.00312229
0.00283243
0.00340545
0.0031739
0.00287184
0.00247679
0.00217738
0.00233151
0.00291175
0.00350176
0.00396597
0.00426916
0.00443196
0.00449314
0.00449481
0.00444816
0.00435731
0.00425867
0.0041272
0.00398298
0.00383454
0.00369241
0.00356365
0.00345339
0.00336525
0.00330137
0.00326275
0.00324911
0.00325223
0.00322687
0.00307261
0.0028321
0.00337813
0.00317287
0.00288542
0.00250685
0.0021811
0.00220919
0.00266178
0.00312262
0.00350454
0.00375965
0.00391435
0.0039963
0.00402728
0.00401661
0.00396457
0.00389817
0.00380237
0.00369028
0.00357045
0.00345249
0.00334347
0.0032504
0.00317712
0.00312585
0.00309657
0.00308948
0.00309656
0.00307969
0.00296089
0.0027695
0.00328571
0.00311414
0.00285344
0.00250982
0.00217974
0.0020927
0.00239263
0.00277293
0.0031025
0.00333965
0.00350099
0.00360626
0.00366622
0.00368877
0.00367448
0.00363796
0.00357899
0.00349914
0.0034088
0.00331549
0.00322548
0.00314595
0.003081
0.00303208
0.0029995
0.00298249
0.00297362
0.00294681
0.00284039
0.00267376
0.00322824
0.00309239
0.00287848
0.00259707
0.00231302
0.00219434
0.00238101
0.00268348
0.00295793
0.00316963
0.00332032
0.00342731
0.00349576
0.00353146
0.0035363
0.00351851
0.00348615
0.00343404
0.0033719
0.00330555
0.00323961
0.00317951
0.00312873
0.00308725
0.00305361
0.00302477
0.0029945
0.00294354
0.00282711
0.00266242
0.00318763
0.00310297
0.00297567
0.0028107
0.00263972
0.00256084
0.00267157
0.00286467
0.00304207
0.00318296
0.00328793
0.00336537
0.00341579
0.00344082
0.00343983
0.00342341
0.00339642
0.00335825
0.00331407
0.00326968
0.00322794
0.00319124
0.00316205
0.00314019
0.00312273
0.00310291
0.00307874
0.00303164
0.00294485
0.00281492
0.00321766
0.00318618
0.00313273
0.00304962
0.00296707
0.00293112
0.0029742
0.00305561
0.00312973
0.00318527
0.00323267
0.00327075
0.00329538
0.00330484
0.00329589
0.00327797
0.0032561
0.00322918
0.00320224
0.0031797
0.00316366
0.00315517
0.00315457
0.00316059
0.00317014
0.00317763
0.00317786
0.00317172
0.00314179
0.0030853
0.000202094
0.000217747
0.000220673
0.000220189
0.000217241
0.000212637
0.000206855
0.000200257
0.00019314
0.000185873
0.000178678
0.000171862
0.000165475
0.000159643
0.000154033
0.000147835
0.000140399
0.00013206
0.000123312
0.000114423
0.000104709
9.33622e-05
8.40976e-05
7.8022e-05
0.000360912
0.000380242
0.000360944
9.00087e-05
0.000100942
0.000113168
0.000794064
0.000997409
0.00107321
0.0010827
0.00106526
0.00103777
0.00100516
0.000969323
0.000931077
0.000891778
0.000850378
0.000807768
0.000759859
0.000705844
0.000641401
0.00057007
0.000503722
0.000458825
0.000433835
0.000423277
0.000413857
0.000387383
0.000353399
0.000396848
0.00048414
0.000488366
0.000394677
0.000351013
0.000453153
0.000560972
0.00129194
0.00164259
0.00183991
0.00193469
0.00196875
0.0019706
0.00195015
0.00191117
0.00185902
0.0017972
0.00172484
0.00164327
0.00154624
0.00143209
0.00129699
0.00114742
0.00100523
0.000904512
0.000842009
0.000810172
0.000783254
0.000727924
0.000654238
0.000689421
0.000786373
0.000770418
0.000652875
0.00058444
0.000674679
0.000834027
0.00162971
0.00213676
0.0024124
0.00258178
0.0026824
0.00273837
0.00275809
0.002741
0.00269636
0.00262928
0.00254016
0.00242945
0.00229184
0.00212367
0.00192585
0.00170726
0.00149872
0.00134468
0.00124296
0.00118298
0.0011341
0.00105513
0.000947112
0.000949848
0.00104259
0.00103949
0.000904209
0.000786789
0.000828679
0.000991874
0.00186749
0.00241327
0.0028232
0.00305808
0.00323293
0.00335544
0.00343027
0.00345228
0.00342718
0.0033651
0.00326906
0.00313649
0.00296243
0.0027504
0.00250014
0.0022235
0.00196052
0.0017599
0.00162218
0.00153496
0.00146475
0.00136698
0.00123599
0.00120585
0.00127899
0.00128691
0.00114562
0.000984878
0.000972892
0.00112764
0.00193801
0.00249581
0.00296995
0.00336233
0.00365086
0.0038504
0.00399172
0.00406455
0.00406782
0.00401578
0.00391676
0.00376757
0.00356566
0.00331624
0.00302165
0.00269725
0.00239086
0.00214964
0.00197939
0.00186663
0.00177682
0.00166422
0.00151888
0.00146005
0.00150777
0.00151948
0.00137981
0.00118765
0.0011215
0.00126159
0.00191242
0.00248419
0.00302826
0.0035021
0.0039135
0.00424654
0.00446314
0.00459408
0.00463404
0.00459403
0.00449192
0.00433164
0.00410736
0.0038285
0.0034962
0.00313357
0.00279276
0.00251639
0.0023169
0.00218027
0.0020725
0.00194805
0.00179413
0.00171212
0.00173346
0.00174286
0.00160825
0.00139467
0.0012791
0.00139971
0.00181314
0.00241102
0.00302163
0.00358091
0.00408076
0.00452641
0.00486087
0.00505395
0.00513494
0.00511121
0.00500695
0.00483686
0.00459518
0.00429327
0.00393018
0.00353746
0.00316908
0.00286301
0.00263698
0.00247813
0.00235378
0.00221959
0.00206102
0.00196138
0.00195785
0.00196086
0.00183201
0.00160475
0.00144511
0.00154
0.00166831
0.00227963
0.00295848
0.00360459
0.00419895
0.0047319
0.00518935
0.00545244
0.00557714
0.00557411
0.00546828
0.00529001
0.00503516
0.00471606
0.0043289
0.00391305
0.00352203
0.003192
0.00294171
0.00276227
0.00262243
0.00247993
0.00231926
0.00220712
0.00218176
0.00217608
0.00205211
0.00181673
0.00161825
0.00168122
0.0015052
0.00210078
0.00284121
0.00357874
0.00426993
0.00489632
0.00542601
0.00580073
0.00596554
0.00598699
0.00588133
0.00569597
0.00543244
0.00510156
0.00469679
0.00426374
0.00385424
0.00350472
0.00323265
0.00303435
0.00288007
0.00273027
0.00256897
0.00244879
0.00240541
0.00239017
0.0022696
0.00202989
0.0017969
0.00182349
0.00134772
0.00189218
0.00267612
0.00350648
0.00429829
0.00501894
0.00562874
0.00609122
0.00630118
0.00635039
0.00625094
0.0060605
0.00579105
0.00545382
0.00503744
0.00459208
0.00416774
0.00380233
0.00351122
0.00329573
0.00312808
0.00297174
0.00281092
0.00268619
0.00262874
0.00260401
0.00248522
0.00224399
0.00198122
0.00196475
0.00121669
0.00169528
0.00248558
0.00339108
0.00428521
0.0051021
0.00579456
0.00631872
0.00659246
0.00666402
0.00658035
0.00638773
0.0061142
0.00577596
0.0053535
0.00489984
0.00446405
0.00408583
0.00377861
0.00354766
0.00336759
0.00320539
0.00304589
0.00291922
0.00285143
0.00281776
0.00269939
0.00245871
0.00217431
0.00210787
0.00114177
0.00153029
0.00229275
0.00324732
0.00423249
0.00514671
0.00592075
0.00649877
0.00683546
0.00693055
0.00687277
0.0066808
0.00640477
0.00607011
0.00564643
0.00518797
0.00474405
0.00435553
0.00403609
0.00379104
0.00359949
0.00343208
0.00327454
0.00314763
0.00307282
0.00303088
0.00291184
0.00267307
0.00237283
0.00225913
0.00114327
0.00144004
0.00212201
0.00309627
0.00415427
0.00515654
0.00600596
0.00664276
0.00703004
0.00715612
0.00713103
0.00694267
0.00666472
0.00633659
0.00591623
0.00545629
0.00500777
0.00461195
0.00428357
0.00402615
0.00382423
0.00365225
0.00349705
0.00337079
0.00329176
0.00324205
0.00312151
0.00288548
0.0025746
0.00241808
0.00127836
0.00143395
0.00199676
0.00295248
0.00406501
0.0051466
0.00606747
0.00675903
0.00718553
0.00734847
0.00735606
0.00717338
0.00689437
0.00657315
0.00616103
0.00570317
0.00525408
0.00485447
0.00452011
0.00425242
0.00404151
0.00386563
0.00371274
0.00358747
0.003506
0.00344897
0.00332636
0.0030936
0.00277687
0.00258369
0.00151678
0.00158343
0.00194942
0.00283002
0.00397171
0.0051207
0.00610714
0.00684631
0.00730785
0.00751468
0.00753937
0.0073692
0.00709092
0.00677539
0.00637692
0.00592505
0.00548013
0.00508083
0.00474348
0.00446802
0.00424982
0.00407107
0.00391921
0.00379548
0.00371246
0.00364818
0.00352315
0.00329423
0.00297615
0.00275408
0.00182383
0.00180813
0.00198062
0.00274043
0.00388242
0.00508287
0.00612641
0.00690759
0.00740057
0.00764691
0.0076678
0.00752263
0.00724906
0.00693714
0.00655678
0.00611592
0.0056808
0.0052865
0.00494926
0.00466933
0.00444594
0.00426414
0.00411312
0.00399119
0.00390657
0.00383466
0.0037072
0.00348302
0.00316798
0.00292562
0.00217293
0.0020982
0.00214026
0.00270293
0.00380464
0.00503685
0.00612623
0.00694388
0.00746496
0.00772364
0.00774414
0.00762152
0.0073614
0.00705039
0.00668999
0.00626695
0.00584813
0.00546405
0.00513038
0.00484926
0.00462269
0.00443891
0.00428893
0.00416881
0.00408149
0.0040015
0.00387214
0.00365429
0.00334687
0.00309422
0.00253727
0.00240966
0.00234818
0.00268636
0.00374215
0.00498509
0.00610658
0.00695301
0.00748474
0.00771161
0.00775447
0.00765251
0.00741301
0.00710397
0.00676357
0.00636658
0.00597109
0.00560206
0.00527458
0.00499681
0.00477004
0.00458623
0.00443775
0.00431889
0.00422736
0.00413948
0.00400981
0.00380083
0.00350584
0.00325487
0.00289316
0.00271921
0.00259851
0.00276303
0.00369973
0.00492811
0.00606492
0.00690941
0.00739744
0.00763088
0.00768269
0.00759989
0.00738433
0.00708461
0.00676287
0.0064013
0.0060342
0.00568378
0.00536676
0.00509696
0.004874
0.00469251
0.00454566
0.00442691
0.00433138
0.00423745
0.00411051
0.00391399
0.00363582
0.00339859
0.00321384
0.0030032
0.00282668
0.00286709
0.00365962
0.00486301
0.00598073
0.00674371
0.00718687
0.00745005
0.00751092
0.00744501
0.00725361
0.00697768
0.00667452
0.00635572
0.00601981
0.00569004
0.00539025
0.00513224
0.00491665
0.00473883
0.00459418
0.00447656
0.00437947
0.0042836
0.00416406
0.00398434
0.0037265
0.00351611
0.0034775
0.00324168
0.00302534
0.00298273
0.00358164
0.00474861
0.00576688
0.00643115
0.00688858
0.00714932
0.00722483
0.00717078
0.00700742
0.00676828
0.00648935
0.00621725
0.00591269
0.00560852
0.00533005
0.00508638
0.00487958
0.00470867
0.00456933
0.00445571
0.00436046
0.00426885
0.00416211
0.00400331
0.00376906
0.00359737
0.00366861
0.00342112
0.00318125
0.00308765
0.00348573
0.00447375
0.0053739
0.0060186
0.00647858
0.00672456
0.0068132
0.00677358
0.00664629
0.00645392
0.00621196
0.00598526
0.00571416
0.00544095
0.00518562
0.00495925
0.00476583
0.00460489
0.00447285
0.00436462
0.00427443
0.0041926
0.00410246
0.00396597
0.00376323
0.00362663
0.00378201
0.00353484
0.00327969
0.00312549
0.00335997
0.00416749
0.00492587
0.00554544
0.00594969
0.00619033
0.00629033
0.00628007
0.00619922
0.00606201
0.00586971
0.00568588
0.0054554
0.00521677
0.00498964
0.00478387
0.00460504
0.0044538
0.0043284
0.00422572
0.00414169
0.00406991
0.00399565
0.00388038
0.00370589
0.0035987
0.0038285
0.00358981
0.00332302
0.00310722
0.00318053
0.00382874
0.00445014
0.00497724
0.00535723
0.00560189
0.00572553
0.00576094
0.00573546
0.00565705
0.00552095
0.00537738
0.00519124
0.00498843
0.00479116
0.00460806
0.00444495
0.00430359
0.00418387
0.00408463
0.00400373
0.00393702
0.00387155
0.00377149
0.00360987
0.00351667
0.0038392
0.00361548
0.00334268
0.00307581
0.00300886
0.00340499
0.00394077
0.0044267
0.00480772
0.00506592
0.00522598
0.00531036
0.00533685
0.00530965
0.00522486
0.00511543
0.00496795
0.00479793
0.00462941
0.00446981
0.00432463
0.00419625
0.00408516
0.00399094
0.00391213
0.00384576
0.00377996
0.00368408
0.00351738
0.00340922
0.00386427
0.00366626
0.00340607
0.00312146
0.00296596
0.00316004
0.00359872
0.00404611
0.00441997
0.00469115
0.00487507
0.00499105
0.00505038
0.00505451
0.00500227
0.00491373
0.00479018
0.00464374
0.00449871
0.00436212
0.00423838
0.0041299
0.00403741
0.00395976
0.00389386
0.00383488