/*--------------------------------*- C++ -*----------------------------------*\
| =========                 |                                                 |
| \\      /  F ield         | OpenFOAM: The Open Source CFD Toolbox           |
|  \\    /   O peration     | Version:  5.0                                   |
|   \\  /    A nd           | Web:      www.OpenFOAM.org                      |
|    \\/     M anipulation  |                                                 |
\*---------------------------------------------------------------------------*/
FoamFile
{
    version     2.0;
    format      ascii;
    class       volScalarField;
    location    "950/air";
    object      epsilon;
}
// * * * * * * * * * * * * * * * * * * * * * * * * * * * * * * * * * * * * * //

dimensions      [0 2 -3 0 0 0 0];

internalField   nonuniform List<scalar> 
243000
(
2.20835
3.16475
3.73424
4.17142
4.46513
4.62019
4.65016
4.57289
4.40897
4.18525
3.92599
3.67122
3.44966
3.29522
3.2102
3.15737
3.07004
2.92491
2.72709
2.49842
2.25741
2.01741
1.79057
1.59119
1.40397
1.20546
0.977516
0.704629
0.126915
0.595487
1.19984
1.62042
1.81682
1.93938
2.00161
2.01788
1.99682
1.94542
1.87034
1.78058
1.6855
1.59829
1.52564
1.47632
1.44248
1.40332
1.3354
1.24477
1.14155
1.0378
0.93834
0.84523
0.760977
0.691902
0.635423
0.575864
0.503223
0.399873
0.292364
0.297797
1.48129
2.01662
2.29087
2.46965
2.57224
2.61794
2.61565
2.57429
2.50156
2.40911
2.30835
2.21546
2.13803
2.08601
2.04549
1.98595
1.87711
1.73358
1.5744
1.41771
1.27095
1.13639
1.01558
0.914044
0.830709
0.750618
0.662497
0.54944
0.42233
0.357729
1.46293
2.14658
2.54604
2.79487
2.957
3.05295
3.09154
3.08117
3.03151
2.95633
2.86868
2.78722
2.71983
2.67651
2.63737
2.56322
2.41805
2.22483
2.0115
1.80232
1.60775
1.43082
1.27232
1.13696
1.02346
0.918659
0.8113
0.686054
0.544371
0.439534
1.26521
2.04246
2.57237
2.94242
3.18046
3.34343
3.43976
3.47819
3.46819
3.42623
3.36651
3.30977
3.26359
3.23723
3.20466
3.11988
2.94352
2.7059
2.44286
2.18434
1.94402
1.72598
1.53057
1.36166
1.21765
1.08555
0.956973
0.816562
0.660769
0.52874
1.0839
1.81002
2.44026
2.91275
3.26414
3.51213
3.67832
3.77904
3.82254
3.82609
3.8054
3.78335
3.76664
3.76312
3.7407
3.64836
3.44593
3.16968
2.86222
2.5587
2.27595
2.01916
1.78858
1.58732
1.41347
1.25312
1.10239
0.945067
0.774838
0.620099
0.902884
1.58318
2.21259
2.77307
3.22003
3.57336
3.82433
3.99729
4.10445
4.16368
4.19029
4.21019
4.22869
4.25249
4.24252
4.14532
3.92154
3.61215
3.26591
2.92225
2.6009
2.30825
2.04472
1.81273
1.61028
1.42267
1.24893
1.07387
0.88901
0.714425
0.754887
1.3543
1.99066
2.56495
3.09253
3.53757
3.89311
4.14515
4.32353
4.44556
4.52604
4.59312
4.65099
4.705
4.70912
4.60926
4.36837
4.03133
3.65182
3.27303
2.91707
2.59171
2.29755
2.03676
1.80716
1.59405
1.39703
1.20395
1.00444
0.811864
0.680206
1.12278
1.77165
2.36404
2.91149
3.43597
3.88284
4.23366
4.48797
4.67808
4.81716
4.93523
5.03502
5.12104
5.14051
5.03998
4.78581
4.42637
4.01895
3.60979
3.2232
2.86824
2.54608
2.25859
2.00342
1.76629
1.54641
1.33553
1.12175
0.911872
0.733274
0.92291
1.5489
2.16725
2.73356
3.28865
3.8187
4.26684
4.604
4.86663
5.06777
5.23952
5.3827
5.50161
5.53712
5.43779
5.17417
4.79738
4.36701
3.93203
3.51859
3.1372
2.78972
2.47768
2.19862
1.9389
1.69687
1.4686
1.24057
1.01391
0.85243
0.81561
1.32476
1.96682
2.56284
3.13276
3.71274
4.24956
4.68098
5.01572
5.28164
5.50884
5.69601
5.84797
5.89981
5.80337
5.53402
5.14452
4.69625
4.23971
3.80313
3.39825
3.02807
2.69372
2.39254
2.11167
1.84833
1.60323
1.36095
1.11807
1.00779
0.883682
1.12531
1.75933
2.39222
2.98759
3.57978
4.19522
4.7198
5.12929
5.46209
5.74576
5.97699
6.16146
6.22966
6.13774
5.8658
5.46834
5.00679
4.53292
4.0766
3.65118
3.26078
2.9064
2.58501
2.28453
2.00087
1.73961
1.48334
1.22503
1.19147
1.03751
1.00232
1.54927
2.21687
2.84695
3.45932
4.11241
4.72238
5.21525
5.61174
5.9526
6.22756
6.44349
6.52787
6.44202
6.17038
5.76907
5.29883
4.81161
4.33884
3.89563
3.48737
3.1152
2.77576
2.45737
2.15447
1.878
1.60773
1.33728
1.39866
1.22731
1.04604
1.3578
2.0348
2.7061
3.34595
4.00987
4.69814
5.27359
5.73447
6.13119
6.44934
6.69536
6.79571
6.71738
6.44878
6.04704
5.57237
5.07563
4.58956
4.13132
3.7077
3.32011
2.96464
2.63009
2.30909
2.01788
1.73399
1.45031
1.62863
1.44586
1.21613
1.22801
1.84968
2.56176
3.23611
3.9112
4.65286
5.3077
5.834
6.28444
6.64398
6.91802
7.03437
6.96499
6.70204
6.30292
5.82711
5.32494
4.82879
4.35833
3.92194
3.52125
3.15169
2.80272
2.46476
2.15916
1.86267
1.56525
1.88191
1.68641
1.4249
1.20714
1.675
2.41253
3.12704
3.82073
4.59155
5.31987
5.9129
6.41406
6.81293
7.11296
7.24488
7.18598
6.93112
6.5375
6.06355
5.55913
5.05667
4.57703
4.1305
3.71901
3.33723
2.97547
2.62158
2.30254
1.99407
1.68314
2.15898
1.94683
1.66019
1.34608
1.53964
2.26057
3.01725
3.73589
4.51809
5.31311
5.97134
6.5214
6.95721
7.28118
7.42833
7.3814
7.137
6.75157
6.28217
5.77861
5.27304
4.78757
4.33393
3.91387
3.52186
3.14867
2.78062
2.44875
2.12868
1.80458
2.46024
2.227
1.91668
1.54933
1.47025
2.11286
2.9066
3.65495
4.43706
5.29199
6.01083
6.60803
7.07741
7.42346
7.58566
7.55215
7.32058
6.94598
6.48411
5.98421
5.4785
4.99028
4.53232
4.10632
3.70629
3.3236
2.94378
2.59871
2.2671
1.93029
2.78589
2.52671
2.18994
1.77755
1.48458
1.98063
2.79619
3.5771
4.36192
5.25849
6.0311
6.67407
7.1737
7.54016
7.71737
7.69887
7.48253
7.12149
6.67043
6.17709
5.6741
5.18601
4.72635
4.29696
3.89147
3.50137
3.11181
2.75352
2.41018
2.06058
3.13585
2.84583
2.47888
2.02506
1.59449
1.87961
2.68833
3.50201
4.29349
5.21331
6.02986
6.71693
7.24561
7.63119
7.82366
7.82197
7.62335
7.27958
6.8424
6.35851
5.86109
5.37586
4.91718
4.48695
4.07862
3.68359
3.28623
2.91449
2.55909
2.19618
3.51007
3.18425
2.78258
2.28748
1.76841
1.82267
2.58688
3.42997
4.22994
5.15594
6.01031
6.73346
7.29319
7.69608
7.90427
7.92158
7.74401
7.42101
7.00116
6.52993
6.04108
5.56162
5.10651
4.67793
4.26958
3.87236
3.46937
3.08356
2.71521
2.33827
3.90779
3.54193
3.10045
2.56364
1.97864
1.81372
2.4962
3.36102
4.16913
5.08563
5.97042
6.72161
7.3074
7.7328
7.95748
7.99671
7.84389
7.54571
7.14733
6.69265
6.21588
5.74535
5.29645
4.87197
4.46638
4.06984
3.66374
3.26276
2.88
2.48782
4.32907
3.91843
3.434
2.85862
2.20646
1.85717
2.42053
3.29551
4.11194
5.00391
5.90584
6.67916
7.28624
7.73186
7.97746
8.04248
7.91892
7.65088
7.27916
6.84635
6.38634
5.92837
5.48894
5.07148
4.67128
4.27798
3.87109
3.45384
3.0554
2.64558
4.77246
4.31528
3.79322
3.17696
2.44641
1.94318
2.36473
3.23873
4.06303
4.92083
5.81
6.5977
7.22033
7.68375
7.94982
8.04408
7.95525
7.7254
7.38752
6.98393
6.54754
6.10808
5.68298
5.27635
4.88438
4.49647
4.09057
3.65806
3.24262
2.81326
5.24111
4.75814
4.19916
3.50217
2.68992
2.05836
2.33673
3.20414
4.02753
4.85971
5.68381
6.46126
7.08521
7.55846
7.84297
7.9677
7.91987
7.73574
7.44555
7.08149
6.67895
6.26711
5.86374
5.47369
5.09433
4.71477
4.31209
3.87444
3.44378
2.99294
5.73377
5.21931
4.59931
3.83214
2.94057
2.1996
2.34551
3.20579
4.01808
4.83783
5.61851
6.33732
6.91838
7.36751
7.65912
7.80884
7.8097
7.68357
7.45154
7.14469
6.78722
6.40609
6.02059
5.64036
5.27258
4.90471
4.51619
4.1063
3.67021
3.19477
6.2628
5.72093
5.05215
4.21903
3.24739
2.41261
2.46809
3.31941
4.13047
4.96064
5.72307
6.40792
6.96974
7.41106
7.71682
7.89155
7.93453
7.85866
7.67814
7.41677
7.09684
6.74204
6.37105
5.99567
5.62283
5.24864
4.85982
4.44634
3.9882
3.47136
7.01977
6.44386
5.73028
4.84611
3.82019
2.93411
2.95532
3.82795
4.6798
5.55449
6.34245
7.02864
7.59356
8.04072
8.36585
8.55829
8.62862
8.58563
8.43647
8.20022
7.89806
7.55178
7.17907
6.79077
6.39374
5.98659
5.56153
5.1045
4.58433
3.9859
8.71022
8.17686
7.52829
6.7364
5.82194
5.03401
5.16205
6.09525
7.04481
7.98563
8.82358
9.52031
10.0829
10.5171
10.8351
11.0087
11.0616
11.0041
10.8406
10.5863
10.2623
9.88756
9.47878
9.0448
8.58934
8.09421
7.56846
7.0028
6.37611
5.64353
16.7467
16.59
16.3972
16.11
15.7183
15.4556
15.7506
16.3679
16.9317
17.4407
17.8749
18.243
18.5261
18.7193
18.883
18.9286
18.9056
18.8437
18.7333
18.5914
18.4231
18.2445
18.0645
17.8859
17.6792
17.2269
16.7199
16.1858
15.6942
15.0171
4.07759
5.92311
7.21908
8.24541
9.00981
9.52182
9.78471
9.81639
9.64532
9.32593
8.90548
8.45174
7.99833
7.58675
7.19013
6.71432
6.06272
5.27602
4.42531
3.5922
2.81824
2.13011
1.59685
1.22945
0.99299
0.857977
0.761574
0.649191
0.663814
0.823963
3.15764
3.8126
4.38007
4.84715
5.20499
5.45483
5.58897
5.61034
5.5288
5.36859
5.1575
4.92249
4.68172
4.44901
4.20907
3.90202
3.48834
3.03204
2.55219
2.11564
1.71704
1.3617
1.05229
0.817517
0.664332
0.565158
0.501823
0.469687
0.473644
0.425938
3.02529
3.51084
3.91745
4.25147
4.51965
4.72112
4.84505
4.88786
4.85286
4.75333
4.60864
4.4401
4.2602
4.07988
3.88112
3.61217
3.24149
2.83362
2.41438
2.03144
1.68289
1.37147
1.09361
0.871156
0.725591
0.633083
0.57238
0.509376
0.457973
0.434419
2.89921
3.33259
3.69025
3.97535
4.21531
4.41207
4.55248
4.62819
4.63866
4.59005
4.49466
4.37421
4.23668
4.09244
3.91974
3.66805
3.31166
2.91385
2.50734
2.1331
1.79481
1.49212
1.21711
0.988975
0.835363
0.739388
0.674003
0.595184
0.504558
0.46476
2.5875
3.08573
3.45635
3.7351
3.97555
4.18901
4.36039
4.4773
4.53478
4.53611
4.48895
4.41104
4.31083
4.19711
4.04539
3.80447
3.45601
3.06023
2.65451
2.2784
1.93926
1.63507
1.35652
1.11977
0.954917
0.851407
0.780461
0.694523
0.58639
0.527958
2.02793
2.69992
3.15128
3.46365
3.73187
3.97715
4.18914
4.35313
4.46029
4.51044
4.5104
4.47417
4.40948
4.3241
4.19108
3.95857
3.61632
3.22103
2.81302
2.4325
2.08937
1.78072
1.49707
1.25198
1.07548
0.961882
0.884813
0.795976
0.680706
0.606183
1.47741
2.23209
2.77546
3.158
3.47027
3.75979
4.0189
4.23348
4.39159
4.4904
4.53709
4.54104
4.51046
4.45178
4.33583
4.11298
3.77563
3.38057
2.97063
2.58574
2.23787
1.92383
1.63467
1.38223
1.19465
1.07013
0.985821
0.895178
0.777399
0.689386
1.06412
1.82021
2.40655
2.84344
3.20064
3.53691
3.84699
4.11303
4.32179
4.46924
4.56023
4.60393
4.60567
4.57196
4.47169
4.25837
3.92741
3.5336
3.12302
2.73516
2.38264
2.063
1.76812
1.50932
1.31177
1.17635
1.08385
0.991331
0.872697
0.773661
0.797313
1.46051
2.10301
2.57651
2.94572
3.31807
3.67548
3.99193
4.24958
4.44421
4.57863
4.65912
4.69226
4.68152
4.59561
4.39153
4.06847
3.67805
3.26876
2.87945
2.52294
2.19788
1.89743
1.63311
1.42681
1.28103
1.17995
1.08548
0.967846
0.859712
0.669428
1.13877
1.8418
2.35846
2.74098
3.11715
3.50943
3.87217
4.17695
4.41549
4.591
4.70544
4.76881
4.77958
4.7068
4.5121
4.19764
3.81318
3.40709
3.01771
2.65834
2.32831
2.02287
1.75391
1.54014
1.385
1.27556
1.1792
1.06409
0.948954
0.665632
0.898604
1.59499
2.1694
2.57659
2.94995
3.35566
3.75745
4.10551
4.38386
4.59625
4.74345
4.83512
4.86646
4.80572
4.62076
4.31583
3.93913
3.53779
3.14951
2.78853
2.45426
2.14497
1.87245
1.65251
1.48922
1.37223
1.27433
1.16267
1.04292
0.757605
0.824935
1.35201
1.9919
2.43467
2.81636
3.22067
3.64911
4.03475
4.35027
4.59565
4.7747
4.89207
4.94302
4.89366
4.719
4.42446
4.05671
3.66117
3.27504
2.91319
2.57632
2.26445
1.98945
1.76478
1.5948
1.47146
1.37262
1.26493
1.14301
0.904412
0.887253
1.14399
1.81324
2.306
2.70465
3.10779
3.54809
3.9659
4.3158
4.59234
4.80107
4.94166
5.01088
4.97271
4.80903
4.52549
4.16722
3.77816
3.39489
3.03296
2.69488
2.3821
2.10576
1.87791
1.70283
1.57465
1.47566
1.37218
1.25051
1.08103
1.03029
1.0831
1.63352
2.18243
2.60779
3.01583
3.45698
3.90021
4.28162
4.5874
4.8238
4.98642
5.07258
5.04584
4.89385
4.62155
4.2726
3.89022
3.51022
3.14894
2.81088
2.49889
2.22252
1.99298
1.8145
1.68317
1.58493
1.48584
1.36581
1.27502
1.22504
1.17063
1.46965
2.0588
2.52022
2.93965
3.37874
3.83926
4.24893
4.58237
4.8442
5.02929
5.13211
5.11714
4.97742
4.71614
4.37575
3.9996
3.62276
3.26284
2.9259
2.61612
2.34109
2.11128
1.93113
1.79851
1.702
1.60742
1.48912
1.49281
1.44302
1.34544
1.40103
1.9389
2.43831
2.87537
3.31595
3.78485
4.21928
4.57915
4.8661
5.07468
5.19484
5.19218
5.06509
4.81409
4.48099
4.10981
3.73602
3.37736
3.04229
2.73576
2.46337
2.23454
2.0545
1.92251
1.8287
1.73847
1.62051
1.73816
1.68406
1.57209
1.44761
1.83305
2.35975
2.82031
3.26685
3.73852
4.19461
4.57943
4.89553
5.12886
5.26788
5.27871
5.16427
4.92233
4.59466
4.22547
3.85418
3.49656
3.16357
2.86075
2.5921
2.36542
2.1871
2.05785
1.96759
1.88101
1.76223
2.01501
1.95137
1.82764
1.60956
1.75825
2.28494
2.77292
3.2298
3.70205
4.17776
4.58983
4.94111
5.20083
5.36129
5.3876
5.2857
5.05104
4.72614
4.35745
3.98533
3.62703
3.29525
2.99576
2.73157
2.50801
2.3328
2.20833
2.12241
2.03843
1.91856
2.32991
2.25182
2.11095
1.8329
1.74602
2.21882
2.73278
3.20416
3.67831
4.17173
4.61983
5.01233
5.30385
5.4903
5.5349
5.44573
5.21601
4.88935
4.51983
4.14198
3.77945
3.44615
3.14883
2.88901
2.66881
2.4976
2.37947
2.2987
2.21584
2.0901
2.69336
2.59547
2.42712
2.09478
1.82374
2.16911
2.70061
3.19043
3.67053
4.18899
4.69239
5.12808
5.45943
5.67897
5.74608
5.67054
5.4425
5.11353
4.73403
4.34422
3.97144
3.63226
3.33414
3.07639
2.85824
2.69157
2.58073
2.50539
2.42106
2.2837
3.12236
2.99762
2.78765
2.39507
1.96601
2.14236
2.67858
3.1903
3.69795
4.26311
4.82791
5.32008
5.7044
5.96796
6.06462
6.00503
5.77916
5.43918
5.03995
4.62845
4.23632
3.88275
3.57623
3.31468
3.09491
2.93251
2.82915
2.75792
2.6668
2.50874
3.6446
3.48319
3.21387
2.74692
2.16668
2.13918
2.67132
3.23022
3.80761
4.43655
5.07586
5.64819
6.10653
6.43091
6.5706
6.53303
6.30545
5.94661
5.51462
5.06499
4.63629
4.25212
3.9221
3.64419
3.41714
3.25547
3.15719
3.08452
2.97517
2.78021
4.30778
4.09461
3.74344
3.172
2.42184
2.2065
2.70823
3.36133
4.05294
4.78678
5.53968
6.23023
6.79809
7.21572
7.42407
7.4198
7.19177
6.80245
6.31575
5.79884
5.30188
4.85434
4.47392
4.16265
3.91506
3.73957
3.6307
3.53877
3.38643
3.12469
5.19958
4.91285
4.4534
3.72646
2.77193
2.36361
2.87045
3.67228
4.56535
5.5031
6.44107
7.32241
8.06868
8.64045
8.97145
9.03031
8.81355
8.38095
7.80624
7.17866
6.563
5.99928
5.5132
5.11151
4.79242
4.5564
4.38723
4.22796
3.97837
3.59268
6.50218
6.12023
5.52721
4.5587
3.34232
2.73114
3.3036
4.38916
5.65084
6.98364
8.30441
9.53177
10.5902
11.439
12.0146
12.2173
12.0653
11.5994
10.8868
10.0509
9.19308
8.38334
7.65934
7.03569
6.51465
6.08531
5.73061
5.38376
4.91703
4.29161
8.66601
8.14645
7.31541
6.04625
4.50643
3.70252
4.48516
6.1106
8.0953
10.191
12.2368
14.1433
15.8011
17.1743
18.2066
18.6837
18.6539
18.1496
17.2325
16.0448
14.7396
13.4437
12.2194
11.0918
10.0722
9.16408
8.34322
7.53049
6.58866
5.48056
12.6116
11.8607
10.7898
9.25589
7.43309
6.58798
7.89777
10.5907
13.8747
17.3289
20.5916
23.5958
26.1886
28.3527
30.0539
30.9502
31.1417
30.6503
29.4804
27.7918
25.791
23.6781
21.561
19.4738
17.4541
15.5303
13.6913
11.8785
9.95179
7.90445
20.5438
19.5396
18.3441
16.8593
15.3976
15.1047
17.4598
21.8508
26.9122
32.1201
36.8381
41.0699
44.6258
47.5043
49.727
50.9454
51.3838
50.9615
49.5942
47.4353
44.7
41.6266
38.3724
34.9733
31.485
27.9687
24.4531
20.9426
17.3444
13.717
33.1309
32.458
31.9694
31.7175
32.1558
33.8272
37.5319
43.0229
48.8036
54.4525
59.5122
63.8941
67.4057
70.0133
71.4661
71.8612
71.6524
70.5508
68.5964
65.9256
62.7001
59.0942
55.2774
51.3686
47.4127
43.3836
39.2394
35.0127
30.6786
26.362
38.7616
39.1985
40.1273
41.1684
42.7988
45.9501
50.464
54.684
58.4589
62.1105
65.5221
68.4481
70.5811
71.6763
71.0127
69.2229
67.288
64.7135
61.7821
58.6799
55.5596
52.5156
49.6566
47.1401
45.0305
43.181
41.611
40.2472
38.9631
37.7426
6.00772
8.756
10.5774
12.1403
13.3929
14.3242
14.9114
15.1497
15.0548
14.684
14.0874
13.3498
12.4998
11.588
10.5705
9.32923
7.84261
6.30048
4.87253
3.64105
2.57164
1.65794
1.24567
1.11934
0.215923
0.198925
0.171581
0.715101
0.860155
1.0433
4.041
5.05292
5.82098
6.46536
6.97483
7.35552
7.59703
7.69404
7.6519
7.48753
7.22643
6.89441
6.51302
6.08971
5.60266
4.97572
4.2743
3.58262
2.96368
2.40686
1.86113
1.32317
0.82311
0.539114
0.422396
0.352548
0.369644
0.437392
0.480969
0.504337
3.79195
4.68111
5.33692
5.80839
6.15058
6.38925
6.5288
6.57055
6.51758
6.37992
6.17416
5.91941
5.6294
5.31004
4.9309
4.43376
3.86381
3.31389
2.82621
2.37222
1.91209
1.43727
0.95409
0.62507
0.501218
0.439192
0.418628
0.41572
0.433101
0.49724
3.68527
4.53609
5.17266
5.60725
5.89711
6.08669
6.19317
6.22358
6.18052
6.06932
5.90062
5.692
5.45038
5.18597
4.85754
4.40986
3.88289
3.37543
2.92179
2.49754
2.06392
1.6032
1.11999
0.761319
0.606283
0.528581
0.489122
0.456475
0.451927
0.522406
3.56966
4.37642
5.00863
5.43508
5.71182
5.89231
5.99995
6.04423
6.02798
5.95178
5.82052
5.65445
5.45922
5.23195
4.93433
4.51316
4.00818
3.5167
3.07257
2.65579
2.23182
1.77629
1.29079
0.906865
0.721327
0.624029
0.571018
0.523551
0.506683
0.574819
3.30868
4.12321
4.77625
5.21026
5.49549
5.69081
5.82279
5.89976
5.9229
5.89022
5.80199
5.6786
5.52208
5.32864
5.05366
4.65016
4.15918
3.67687
3.23563
2.82018
2.39966
1.94671
1.46008
1.05673
0.841824
0.723737
0.658321
0.602274
0.576825
0.640073
2.80875
3.70828
4.43629
4.90604
5.22451
5.45601
5.62971
5.75361
5.82569
5.84279
5.80426
5.72171
5.60204
5.43828
5.18143
4.79174
4.31357
3.83916
3.39952
2.98356
2.56366
2.11226
1.62655
1.20941
0.967173
0.827377
0.748854
0.686069
0.652872
0.709071
2.23558
3.16264
3.95908
4.52285
4.90122
5.18731
5.41642
5.59707
5.72511
5.79486
5.807
5.76735
5.68304
5.54633
5.30527
4.92889
4.46462
3.99904
3.56126
3.14415
2.72327
2.27299
1.78989
1.36407
1.09761
0.935522
0.842534
0.772807
0.731893
0.778905
1.71236
2.60858
3.45829
4.08622
4.54369
4.89497
5.18847
5.43128
5.61886
5.7435
5.80599
5.80947
5.75909
5.6474
5.42125
5.05962
4.61153
4.15625
3.72088
3.30196
2.87911
2.42961
1.95067
1.52026
1.23324
1.04954
0.940568
0.862772
0.814241
0.849719
1.29773
2.09099
2.9824
3.66794
4.17625
4.5948
4.95379
5.26087
5.50871
5.68831
5.80086
5.84717
5.82869
5.74039
5.52957
5.18534
4.75597
4.31239
3.87958
3.45804
3.03221
2.58327
2.1098
1.67802
1.37425
1.1709
1.04504
0.957542
0.900642
0.92306
1.01631
1.64123
2.54988
3.28512
3.83954
4.3019
4.72216
5.09141
5.39788
5.63208
5.79344
5.88006
5.89295
5.82689
5.63291
5.30949
4.9011
4.46996
4.03929
3.61408
3.1843
2.73556
2.26836
1.83793
1.52129
1.30099
1.15839
1.0595
0.993216
1.00134
0.85792
1.29832
2.15407
2.94174
3.53763
4.03673
4.50302
4.92841
5.29093
5.5796
5.78554
5.91004
5.95494
5.9105
5.73589
5.43703
5.05127
4.63232
4.20252
3.77232
3.33756
2.88863
2.42787
2.00123
1.67545
1.4413
1.28296
1.1715
1.09487
1.08655
0.80511
1.08117
1.80196
2.6317
3.27218
3.80515
4.30198
4.77864
5.19497
5.5313
5.77912
5.94107
6.01887
5.99672
5.84502
5.57446
5.21193
4.80365
4.37262
3.93561
3.49487
3.04534
2.59083
2.16973
1.83829
1.59366
1.42109
1.2964
1.20795
1.18172
0.85429
1.01018
1.52585
2.34869
3.03716
3.60675
4.13259
4.64739
5.10838
5.48871
5.77614
5.97872
6.09095
6.09355
5.96907
5.7301
5.39007
4.98956
4.55413
4.10802
3.66
3.20935
2.76078
2.34617
2.01227
1.76048
1.57542
1.437
1.33425
1.28819
0.981354
1.06599
1.38307
2.10132
2.82622
3.4336
3.9877
4.53157
5.0328
5.45504
5.78138
6.0306
6.17999
6.2127
6.11959
5.91459
5.59492
5.19781
4.75373
4.29555
3.83836
3.38559
2.94252
2.53473
2.20129
1.94521
1.74928
1.59644
1.47635
1.40781
1.1604
1.21526
1.36403
1.91239
2.64
3.28442
3.86743
4.43325
4.97191
5.43456
5.808
6.10806
6.29921
6.36942
6.31162
6.14227
5.83927
5.43984
4.98174
4.50738
4.03812
3.58128
3.14322
2.74173
2.41118
2.1529
1.94716
1.77872
1.63752
1.54248
1.38206
1.42212
1.4745
1.80307
2.48333
3.15802
3.77107
4.358
4.92963
5.43091
5.87501
6.22696
6.4667
6.58381
6.56636
6.43319
6.14183
5.73296
5.25408
4.75777
4.27229
3.8092
3.37342
2.97705
2.65104
2.39116
2.17552
1.98932
1.8222
1.69478
1.65635
1.67876
1.66297
1.78752
2.36462
3.05436
3.69787
4.30876
4.91053
5.46986
5.99283
6.40946
6.70794
6.88352
6.91439
6.8169
6.53111
6.10448
5.59621
5.07096
4.56363
4.08886
3.65076
3.25784
2.93574
2.67205
2.44403
2.23607
2.03696
1.86837
1.99514
1.98411
1.92101
1.88152
2.2936
2.97439
3.64808
4.28676
4.93104
5.59071
6.19144
6.68835
7.06114
7.31024
7.40071
7.33877
7.05215
6.5991
6.05208
5.48836
4.94996
4.45405
4.00686
3.61646
3.29026
3.01495
2.76768
2.53056
2.29106
2.0677
2.41573
2.35647
2.23048
2.06282
2.27165
2.92039
3.62362
4.30779
5.04422
5.81289
6.5156
7.11415
7.58565
7.93
8.09527
8.07145
7.78105
7.29382
6.69677
6.08255
5.49729
4.96722
4.50336
4.10156
3.75507
3.45138
3.17058
2.89081
2.59431
2.30144
2.94727
2.81854
2.60721
2.31972
2.30932
2.89729
3.63875
4.42994
5.30167
6.19705
7.03735
7.7716
8.37871
8.8508
9.11543
9.13981
8.84886
8.32292
7.665
6.98335
6.33028
5.75381
5.24656
4.79732
4.39769
4.03392
3.69301
3.34646
2.96755
2.58299
3.63392
3.40934
3.08209
2.65267
2.45713
2.93417
3.75682
4.72377
5.77118
6.85078
7.88116
8.80995
9.60856
10.2586
10.6671
10.7651
10.4892
9.93086
9.20508
8.44093
7.70234
7.02198
6.40596
5.84501
5.33017
4.85244
4.40438
3.94868
3.44504
2.93236
4.54987
4.19879
3.71706
3.11102
2.71698
3.12275
4.0817
5.27683
6.60719
7.97168
9.28604
10.501
11.5785
12.4879
13.1225
13.3482
13.13
12.568
11.7916
10.8994
9.98494
9.09998
8.26631
7.48129
6.74716
6.06635
5.42932
4.79062
4.09053
3.39643
5.83481
5.32409
4.64329
3.81166
3.20775
3.56132
4.74291
6.32157
8.09842
9.93208
11.7115
13.3569
14.849
16.1476
17.1544
17.6093
17.5403
17.0076
16.119
14.9891
13.7596
12.5119
11.2935
10.1203
9.00786
7.97082
7.00313
6.05278
5.03509
4.05271
7.78449
7.08825
6.1642
5.04547
4.20321
4.57269
6.14068
8.32329
10.8475
13.4393
15.9459
18.2868
20.4239
22.2957
23.8535
24.6192
24.6975
24.1655
23.1017
21.6304
19.9371
18.141
16.3164
14.5093
12.7642
11.1192
9.57977
8.09656
6.56002
5.1037
11.0385
10.1614
8.98163
7.52128
6.44742
6.95742
9.18944
12.3565
16.0313
19.7823
23.3374
26.6335
29.6194
32.2039
34.4256
35.5425
35.7642
35.2233
33.9333
32.0218
29.7194
27.191
24.5301
21.8048
19.096
16.4875
14.0224
11.6621
9.27474
7.03387
16.8715
15.8705
14.5468
12.8532
11.7513
12.6689
15.9171
20.5003
25.6641
30.9011
35.703
40.0666
43.9415
47.1962
49.9421
51.2144
51.4237
50.7243
49.1018
46.6849
43.7253
40.4317
36.8896
33.1526
29.3108
25.4685
21.7479
18.1334
14.4977
11.0415
27.0054
26.0057
24.959
23.7471
23.2504
25.0703
29.4513
35.4221
41.862
48.2715
53.9972
59.051
63.3905
66.7931
69.237
69.769
69.241
67.5116
65.0123
61.9186
58.4184
54.6779
50.8004
46.805
42.6829
38.4063
33.9079
29.2536
24.4201
19.6931
39.4452
38.988
38.8958
39.3728
41.0282
44.2879
49.391
55.6081
61.9573
68.1126
73.5993
78.2051
81.8054
83.9805
84.0838
81.9086
79.1823
75.8072
72.1902
68.4439
64.7208
61.0972
57.6565
54.4173
51.3115
48.1938
44.9368
41.434
37.6184
33.7731
42.5188
43.1742
44.2563
45.7105
48.2446
52.4911
57.8763
63.1854
68.1943
72.9922
77.2975
80.5863
82.5165
82.5834
80.0298
75.5956
71.1763
66.479
61.9999
57.894
54.3248
51.2864
48.7923
46.8696
45.4933
44.4947
43.7467
43.1063
42.4284
41.8433
8.44757
11.9055
14.0119
15.888
17.4967
18.7804
19.6678
20.1082
20.0894
19.6608
18.8622
17.7913
16.4664
14.9507
13.1797
11.0542
8.73314
6.73269
5.25852
4.19286
3.05701
1.86579
0.277902
0.25069
0.220858
0.195556
0.758841
0.891205
1.09266
1.24872
5.28138
6.43929
7.27426
8.01829
8.64494
9.13598
9.46349
9.61045
9.57833
9.38138
9.04665
8.59814
8.06388
7.43771
6.68308
5.74859
4.80542
4.07495
3.54445
3.01832
2.30098
1.49789
0.669498
0.286523
0.265669
0.289463
0.386171
0.451607
0.52799
0.588127
4.86337
5.83044
6.60225
7.20235
7.63902
7.93896
8.10284
8.13536
8.0439
7.84522
7.56024
7.20756
6.8046
6.34652
5.78238
5.07192
4.36121
3.83387
3.43874
2.97992
2.32079
1.56237
0.776093
0.351568
0.308995
0.331264
0.362375
0.401029
0.468725
0.568422
4.60315
5.56266
6.39697
7.01809
7.42067
7.6571
7.75751
7.74488
7.63219
7.43769
7.17838
6.8727
6.527
6.14488
5.65939
5.03001
4.39528
3.92297
3.55405
3.1095
2.47249
1.70706
0.907625
0.438005
0.364816
0.384875
0.400148
0.424969
0.489892
0.609811
4.33848
5.31459
6.21509
6.87681
7.29851
7.52672
7.61084
7.59005
7.48327
7.30702
7.07441
6.81152
6.5177
6.17747
5.73246
5.14275
4.54461
4.09367
3.72795
3.28466
2.65549
1.88084
1.06301
0.553027
0.435604
0.449962
0.459428
0.478699
0.539916
0.678731
4.03802
5.023
5.98076
6.6877
7.14047
7.38557
7.48384
7.48314
7.40458
7.26053
7.07626
6.84542
6.58869
6.28339
5.86325
5.2975
4.72569
4.28952
3.92368
3.47957
2.85646
2.07747
1.23995
0.692174
0.524049
0.523538
0.529036
0.545451
0.605701
0.759965
3.66815
4.66215
5.66661
6.42381
6.91189
7.19096
7.32746
7.36823
7.33741
7.24261
7.09995
6.91044
6.68969
6.41168
6.00882
5.46284
4.91753
4.49724
4.13191
3.68654
3.06897
2.29038
1.44187
0.853896
0.633593
0.605023
0.60476
0.618061
0.677741
0.843925
3.18365
4.19079
5.25335
6.06195
6.60176
6.93654
7.13113
7.23123
7.26084
7.22291
7.12883
6.98367
6.79789
6.543
6.15476
5.63119
5.11725
4.7159
4.35139
3.90349
3.29026
2.51691
1.66402
1.03858
0.764272
0.698621
0.68557
0.694492
0.752043
0.925461
2.6927
3.66487
4.7427
5.60425
6.21885
6.62875
6.89856
7.07244
7.1707
7.19718
7.15681
7.05631
6.90436
6.67073
6.29827
5.8039
5.32866
4.94881
4.58406
4.13078
3.51945
2.75407
1.90423
1.24604
0.916789
0.807922
0.774048
0.774955
0.827893
1.00304
2.22587
3.12914
4.20409
5.10098
5.78563
6.28401
6.64135
6.89719
7.07102
7.16462
7.18186
7.126
7.00689
6.7948
6.44253
5.98713
5.55842
5.20101
4.83318
4.37014
3.75713
3.00068
2.15979
1.47543
1.09254
0.93561
0.874632
0.860732
0.906211
1.07714
1.81253
2.61607
3.67683
4.60271
5.34301
5.92411
6.37225
6.7147
6.96686
7.12964
7.20534
7.19454
7.10776
6.91952
6.59482
6.19018
5.81434
5.47823
5.10286
4.6243
4.00552
3.2573
2.42891
1.72592
1.29314
1.08461
0.990676
0.955189
0.989084
1.14979
1.47613
2.15519
3.1821
4.13408
4.92381
5.56874
6.10603
6.53463
6.86515
7.09927
7.23061
7.26706
7.21295
7.05286
6.76592
6.42482
6.10489
5.78718
5.39794
4.89722
4.26854
3.52636
2.71188
1.9983
1.52045
1.25829
1.12559
1.06249
1.0792
1.22419
1.22523
1.77117
2.73292
3.71053
4.54259
5.24646
5.85694
6.36692
6.77728
7.07458
7.26374
7.3506
7.33247
7.20643
6.97013
6.70505
6.44077
6.13521
5.72453
5.1945
4.55228
3.8128
3.01201
2.2956
1.77723
1.46058
1.28372
1.18742
1.17916
1.30391
1.06664
1.4914
2.34369
3.3285
4.20713
4.9652
5.63477
6.22331
6.70237
7.06
7.31373
7.45517
7.48066
7.39704
7.22603
7.04829
6.83501
6.53216
6.09076
5.52465
4.86463
4.12446
3.3377
2.62283
2.06742
1.696
1.47016
1.33526
1.29189
1.39219
1.00781
1.32913
2.03957
2.99404
3.90807
4.71895
5.44543
6.09868
6.64413
7.05938
7.39375
7.59567
7.67638
7.64845
7.55726
7.47323
7.30486
6.99199
6.50907
5.90114
5.21795
4.47399
3.70478
2.98928
2.397
1.97024
1.69076
1.51006
1.42225
1.49205
1.04997
1.28049
1.83628
2.71818
3.65097
4.50862
5.28807
5.99885
6.609
7.1027
7.52383
7.79385
7.94376
7.99183
7.99602
8.00888
7.87297
7.53565
7.00002
6.34524
5.63246
4.88372
4.13229
3.40905
2.7755
2.29104
1.95274
1.71788
1.57508
1.60493
1.20405
1.35913
1.75002
2.51324
3.4389
4.3368
5.16619
5.92877
6.60347
7.22025
7.73001
8.07977
8.31741
8.46617
8.58721
8.69176
8.57315
8.19563
7.59698
6.88819
6.14239
5.39634
4.64735
3.90226
3.21743
2.6695
2.26566
1.96685
1.75831
1.73751
1.46035
1.54862
1.76799
2.38703
3.27552
4.20514
5.08285
5.8977
6.67812
7.42947
8.04641
8.49579
8.84797
9.12822
9.38737
9.57535
9.45684
9.02351
8.35312
7.58123
6.81034
6.0632
5.28957
4.49777
3.74474
3.1223
2.64296
2.26782
1.98192
1.8937
1.81349
1.83194
1.92486
2.34015
3.16505
4.11617
5.04258
5.93928
6.8934
7.77823
8.52238
9.10347
9.60773
10.0574
10.4774
10.7385
10.6044
10.1023
9.35048
8.51485
7.75034
6.95713
6.1153
5.23561
4.39086
3.67534
3.10475
2.6365
2.25544
2.08033
2.26776
2.21213
2.1694
2.37733
3.11127
4.07383
5.06885
6.13495
7.26923
8.32693
9.2357
9.9954
10.7026
11.3682
11.976
12.3002
12.1408
11.5665
10.7305
9.89626
9.08134
8.17873
7.20198
6.18359
5.20899
4.37046
3.68321
3.09739
2.59591
2.31115
2.85766
2.705
2.53601
2.55497
3.12303
4.1072
5.25231
6.54705
7.89242
9.17031
10.3072
11.313
12.2914
13.2308
14.0622
14.4433
14.266
13.6396
12.7765
11.9419
10.9728
9.86042
8.66725
7.44658
6.28568
5.27633
4.43157
3.69035
3.03159
2.60791
3.64019
3.36247
3.04338
2.86439
3.30554
4.33287
5.69745
7.25046
8.89278
10.4687
11.9294
13.2766
14.6167
15.9008
17.0093
17.4535
17.3054
16.7499
15.8688
14.862
13.616
12.2037
10.7042
9.19197
7.76204
6.50844
5.44101
4.48529
3.61259
3.00364
4.71198
4.28038
3.77689
3.40263
3.7243
4.86427
6.48478
8.42334
10.4747
12.4936
14.411
16.2281
18.0453
19.7612
21.2308
21.777
21.7887
21.2446
20.2484
18.9371
17.3328
15.5197
13.6051
11.6857
9.87095
8.26139
6.8701
5.61035
4.43312
3.56389
6.25795
5.64975
4.92404
4.33192
4.54106
5.86774
7.89646
10.3489
13.0217
15.68
18.2346
20.6814
23.1098
25.3548
27.3197
28.0185
28.0484
27.4149
26.2335
24.5847
22.5513
20.2417
17.7936
15.3311
12.9839
10.8649
8.99963
7.30058
5.67728
4.42537
8.63757
7.84748
6.87907
6.04174
6.17109
7.79955
10.4224
13.6321
17.1639
20.7115
24.0959
27.326
30.4833
33.335
35.8128
36.5292
36.4618
35.6491
34.2045
32.1822
29.6891
26.8429
23.79
20.6821
17.6638
14.8574
12.3187
9.98628
7.70369
5.87495
12.5163
11.5763
10.4161
9.3832
9.50018
11.5767
15.035
19.2781
23.8817
28.5402
32.8939
36.9863
40.894
44.2869
47.1365
47.5315
47.0634
45.6255
43.6379
41.161
38.313
35.157
31.7742
28.2101
24.5501
20.9803
17.6041
14.3498
11.1684
8.53483
18.8882
17.8886
16.7799
15.8776
16.1828
18.8322
23.2623
28.6503
34.3628
40.0995
45.3636
50.1855
54.6373
58.246
60.907
60.0001
58.0562
55.4863
52.7815
49.8351
46.7523
43.5404
40.1889
36.6821
32.9844
29.1219
25.1607
21.1374
17.0656
13.5852
28.2482
27.4394
26.8322
26.7497
27.9516
31.219
36.3803
42.5385
48.9225
55.2136
60.9486
66.001
70.4107
73.4013
74.4616
70.6282
66.7368
62.7313
59.1645
55.7685
52.6189
49.6783
46.8143
43.9903
41.0448
37.8344
34.2787
30.369
26.1421
22.4154
37.8904
37.7454
38.0236
39.1891
41.8789
46.2141
51.7013
57.7843
63.9495
69.9471
75.4051
79.8558
83.2053
84.0535
82.0408
74.9215
68.901
63.3615
58.8882
55.1352
52.0461
49.5197
47.5237
45.8601
44.3891
42.8386
41.0267
38.8281
36.2277
33.8946
39.1105
39.9687
41.2252
43.1616
46.4192
51.1785
56.8445
62.6407
68.3328
73.798
78.662
82.0242
83.7276
82.2491
77.2968
67.9546
60.5773
54.1451
49.119
45.1703
42.2328
40.1536
38.84
38.1637
37.995
38.1429
38.4172
38.6544
38.7566
39.0359
11.5981
15.696
18.0241
19.981
21.7418
23.2069
24.2621
24.8147
24.811
24.2802
23.2374
21.7864
19.9237
17.7205
15.0793
11.9885
9.05938
7.46298
7.25543
7.27116
5.75036
3.58902
1.61188
0.254545
0.222721
0.845254
0.912457
1.09023
1.29977
1.38682
6.93385
8.1296
8.93806
9.65539
10.3147
10.8605
11.2394
11.4172
11.3865
11.1535
10.749
10.1884
9.50461
8.65977
7.60059
6.33924
5.30606
4.941
4.97958
4.69311
3.74007
2.57035
1.33283
0.446259
0.328507
0.39463
0.438583
0.50394
0.596209
0.680179
6.425
7.28131
7.98067
8.57797
9.05077