/*--------------------------------*- C++ -*----------------------------------*\
| =========                 |                                                 |
| \\      /  F ield         | OpenFOAM: The Open Source CFD Toolbox           |
|  \\    /   O peration     | Version:  5.0                                   |
|   \\  /    A nd           | Web:      www.OpenFOAM.org                      |
|    \\/     M anipulation  |                                                 |
\*---------------------------------------------------------------------------*/
FoamFile
{
    version     2.0;
    format      ascii;
    class       volScalarField;
    location    "950/air";
    object      k;
}
// * * * * * * * * * * * * * * * * * * * * * * * * * * * * * * * * * * * * * //

dimensions      [0 2 -2 0 0 0 0];

internalField   nonuniform List<scalar> 
243000
(
0.0550672
0.0682445
0.0743411
0.0781384
0.0799041
0.0799776
0.078698
0.076371
0.0732728
0.0697126
0.0659439
0.0623901
0.0593641
0.0572567
0.0561057
0.0554876
0.0546134
0.0531726
0.0511635
0.0487784
0.0461837
0.043503
0.040871
0.0384951
0.0361464
0.0333794
0.0296978
0.0244608
0.0213482
0.0230535
0.0852904
0.104193
0.112441
0.117427
0.119909
0.120544
0.119696
0.117632
0.114586
0.110892
0.106909
0.103188
0.100035
0.0978681
0.0963743
0.0946401
0.0915798
0.0874044
0.0825129
0.0774393
0.0724111
0.0675379
0.0629671
0.059086
0.0558219
0.0522761
0.0477765
0.0409745
0.0334299
0.0337063
0.0981161
0.12054
0.13122
0.137939
0.141708
0.143361
0.143266
0.141748
0.139068
0.135624
0.13182
0.128264
0.125263
0.123232
0.121649
0.119306
0.114936
0.109023
0.102257
0.0953616
0.0886639
0.0822896
0.0763435
0.071155
0.0667542
0.0623883
0.0574019
0.0506614
0.0425168
0.0380447
0.097227
0.125608
0.140753
0.149759
0.155471
0.158794
0.160117
0.159757
0.158041
0.155426
0.152349
0.149462
0.147056
0.145509
0.144115
0.141442
0.136088
0.128768
0.120417
0.111927
0.103723
0.0959664
0.0887363
0.0823138
0.0767323
0.0713951
0.0657161
0.0587618
0.0503626
0.0436477
0.0881425
0.121435
0.14164
0.154915
0.163157
0.168664
0.171879
0.17316
0.17284
0.17146
0.16948
0.16759
0.16605
0.165183
0.164111
0.161254
0.155164
0.146732
0.137083
0.127245
0.117737
0.108761
0.100383
0.0928439
0.0861682
0.0798118
0.073376
0.0660106
0.057324
0.0493884
0.0794791
0.111935
0.136654
0.153789
0.165914
0.17423
0.179683
0.182961
0.184385
0.184526
0.183889
0.183207
0.1827
0.182624
0.181946
0.178997
0.172366
0.163065
0.152366
0.141409
0.130796
0.120764
0.111381
0.10285
0.0951884
0.0878391
0.0806438
0.072779
0.0637584
0.054948
0.0703326
0.10232
0.127901
0.148729
0.164326
0.176152
0.184345
0.189889
0.193304
0.1952
0.196072
0.196733
0.197351
0.19814
0.197886
0.194916
0.187894
0.17792
0.166387
0.154516
0.142978
0.132042
0.121786
0.112382
0.103843
0.0956097
0.0876531
0.0792614
0.0698878
0.0604118
0.0624447
0.0921165
0.119136
0.141077
0.159855
0.174884
0.186463
0.194486
0.200082
0.203887
0.206396
0.208484
0.210284
0.211967
0.212155
0.209214
0.201921
0.191443
0.17926
0.166657
0.154352
0.142652
0.131639
0.12147
0.112154
0.103153
0.0944627
0.085549
0.0758223
0.0658065
0.0583853
0.0812105
0.110144
0.133552
0.153448
0.17142
0.186052
0.19719
0.205084
0.210911
0.215143
0.218711
0.221713
0.224297
0.224936
0.222068
0.214603
0.203766
0.191093
0.177911
0.164979
0.152635
0.140978
0.130147
0.120143
0.110465
0.101091
0.0916815
0.0816241
0.0711192
0.061613
0.0712729
0.100601
0.125952
0.147084
0.166391
0.18391
0.198142
0.208564
0.216518
0.222533
0.227613
0.231814
0.23529
0.236379
0.233621
0.226074
0.21501
0.201982
0.188356
0.17492
0.162043
0.149842
0.138442
0.127834
0.117558
0.107553
0.0976814
0.0872997
0.0763408
0.0681501
0.0658465
0.0905306
0.117954
0.140829
0.161056
0.180406
0.19754
0.21084
0.220895
0.228744
0.235353
0.240736
0.245079
0.246609
0.243994
0.236453
0.225273
0.212021
0.198067
0.184235
0.170919
0.158267
0.146385
0.135253
0.12445
0.113869
0.103569
0.0928654
0.0814901
0.0762195
0.0698307
0.0811974
0.10938
0.134423
0.155994
0.176017
0.195786
0.211961
0.224199
0.23392
0.242061
0.248604
0.253779
0.255735
0.253296
0.245826
0.234642
0.221278
0.207105
0.192972
0.179305
0.166282
0.153999
0.14242
0.131159
0.120056
0.109367
0.0983573
0.0866151
0.0852174
0.077748
0.0753793
0.100373
0.127666
0.150997
0.172018
0.193137
0.211992
0.22668
0.238173
0.247844
0.255521
0.261484
0.263852
0.261617
0.254278
0.243179
0.22981
0.215517
0.201168
0.187228
0.173905
0.161295
0.14935
0.1377
0.12613
0.115096
0.103787
0.0918327
0.0948202
0.0869833
0.0781607
0.0919123
0.12046
0.145901
0.168212
0.18986
0.21123
0.228354
0.241634
0.252789
0.261569
0.268274
0.271041
0.269037
0.261884
0.25094
0.237662
0.223338
0.208851
0.194711
0.18116
0.168299
0.156057
0.144085
0.132099
0.120747
0.109155
0.096933
0.104937
0.0970182
0.0865106
0.0861431
0.112939
0.140583
0.164477
0.186744
0.209839
0.229325
0.244428
0.256998
0.266826
0.27421
0.27737
0.275626
0.26871
0.257981
0.244859
0.2306
0.216053
0.201785
0.188078
0.175035
0.162559
0.150328
0.137976
0.126323
0.114494
0.10199
0.11554
0.107479
0.0961484
0.0856977
0.10569
0.134984
0.160721
0.183856
0.207962
0.229665
0.246632
0.260535
0.271351
0.279359
0.282896
0.281442
0.274812
0.264353
0.251447
0.237319
0.222803
0.208484
0.194692
0.181533
0.168883
0.156449
0.143773
0.131859
0.119819
0.10705
0.126606
0.118255
0.106458
0.0925473
0.100041
0.129179
0.156892
0.18112
0.205713
0.229464
0.248263
0.263449
0.275189
0.283769
0.287672
0.286538
0.28024
0.270101
0.257462
0.24353
0.229119
0.214834
0.201037
0.187824
0.17506
0.162467
0.149546
0.13739
0.125155
0.112142
0.138113
0.129321
0.117131
0.101719
0.0972656
0.123445
0.152986
0.178486
0.203231
0.228852
0.249366
0.265795
0.27837
0.287476
0.291739
0.290956
0.285036
0.27527
0.262956
0.249278
0.235037
0.220859
0.207129
0.193934
0.181124
0.168433
0.155352
0.142951
0.130528
0.117293
0.150034
0.140656
0.127978
0.111472
0.0983053
0.118257
0.149043
0.175932
0.200968
0.227886
0.24994
0.26758
0.280909
0.290502
0.295124
0.294726
0.289235
0.279896
0.267974
0.254609
0.240601
0.226599
0.213001
0.199894
0.18711
0.17439
0.161216
0.148579
0.135968
0.122514
0.162338
0.152243
0.138967
0.121573
0.103437
0.114308
0.14515
0.173452
0.19889
0.226582
0.249916
0.268742
0.282802
0.292856
0.297845
0.297873
0.292862
0.284029
0.272564
0.259572
0.24586
0.232097
0.218698
0.205744
0.193064
0.180391
0.167188
0.154319
0.141515
0.127833
0.175
0.164068
0.150069
0.131836
0.111054
0.112169
0.141456
0.171056
0.196946
0.22492
0.249386
0.269201
0.284056
0.294532
0.299902
0.300407
0.295951
0.2877
0.276767
0.264218
0.250868
0.237413
0.224275
0.211541
0.199043
0.186502
0.173344
0.160233
0.147216
0.13329
0.187973
0.176119
0.161267
0.142213
0.119739
0.112037
0.138135
0.168748
0.195074
0.222877
0.248291
0.268898
0.284442
0.295485
0.30126
0.302313
0.298496
0.290916
0.280606
0.268588
0.255682
0.242612
0.229801
0.21735
0.205111
0.192788
0.179759
0.166382
0.153115
0.138916
0.201246
0.188378
0.172614
0.152884
0.128784
0.114115
0.135365
0.166543
0.193306
0.220495
0.246507
0.267775
0.283903
0.295471
0.301774
0.303472
0.3004
0.293614
0.284044
0.272682
0.260332
0.247733
0.235332
0.22324
0.211334
0.199303
0.186476
0.172816
0.159272
0.14473
0.214759
0.200881
0.184429
0.164028
0.137965
0.117823
0.133341
0.164623
0.191792
0.218093
0.243844
0.265601
0.282198
0.294254
0.301083
0.303516
0.301319
0.295515
0.286852
0.276318
0.264688
0.252708
0.240841
0.229208
0.21771
0.20603
0.193459
0.179563
0.165715
0.150786
0.22861
0.214397
0.19736
0.175031
0.14697
0.122599
0.132366
0.163444
0.190709
0.216323
0.240325
0.261937
0.278674
0.291052
0.298383
0.301592
0.300422
0.295773
0.288345
0.278877
0.26821
0.257068
0.245914
0.234883
0.223902
0.212646
0.200382
0.186577
0.172501
0.157143
0.242707
0.228023
0.209696
0.185851
0.155961
0.128268
0.13279
0.163519
0.190443
0.215709
0.238509
0.258604
0.274302
0.28614
0.293707
0.29757
0.297624
0.294433
0.288489
0.280521
0.271087
0.260841
0.250266
0.239612
0.229092
0.218322
0.206635
0.19394
0.179981
0.164133
0.257362
0.242374
0.223224
0.198147
0.166627
0.136529
0.137437
0.167455
0.194033
0.219404
0.241513
0.260562
0.275685
0.287284
0.295189
0.299669
0.300782
0.29888
0.294295
0.287583
0.279253
0.269865
0.259868
0.249554
0.239103
0.228382
0.216966
0.204491
0.190227
0.173477
0.277656
0.262344
0.242739
0.217282
0.185633
0.155585
0.155114
0.184314
0.210985
0.23668
0.258723
0.277192
0.291944
0.303362
0.311532
0.316322
0.318071
0.317026
0.31335
0.307475
0.299874
0.291041
0.28138
0.271138
0.260466
0.249295
0.237361
0.224193
0.208737
0.190222
0.3205
0.307359
0.291004
0.270388
0.245483
0.222665
0.22542
0.251753
0.277419
0.301726
0.322604
0.339465
0.352775
0.362874
0.370181
0.374142
0.375348
0.374052
0.370342
0.364531
0.357054
0.348307
0.338639
0.328223
0.317117
0.304819
0.291484
0.276795
0.260068
0.239819
0.495108
0.492068
0.488305
0.482655
0.474835
0.469396
0.474943
0.487243
0.498394
0.508384
0.516821
0.523921
0.529353
0.533024
0.536132
0.536994
0.536558
0.535388
0.5333
0.530612
0.527411
0.524
0.520555
0.51713
0.513183
0.504401
0.494458
0.483872
0.474044
0.460356
0.082908
0.10366
0.115377
0.123072
0.127586
0.129508
0.129207
0.127066
0.12346
0.118915
0.113838
0.108784
0.104016
0.0998749
0.0961049
0.091831
0.0860423
0.0788745
0.0707356
0.0622223
0.0536301
0.0451879
0.0379155
0.0324439
0.0287365
0.0264081
0.0250232
0.0227234
0.0241878
0.02861
0.142836
0.169882
0.183454
0.190903
0.194592
0.195633
0.194552
0.191639
0.187194
0.181652
0.1753
0.168655
0.161675
0.154432
0.14607
0.135283
0.121553
0.107757
0.0943346
0.0827307
0.0722429
0.0625112
0.0536627
0.0472362
0.0434271
0.0418674
0.0409252
0.03967
0.0421681
0.0432801
0.179247
0.208291
0.226011
0.236963
0.243825
0.247808
0.249215
0.248161
0.244913
0.239905
0.233455
0.226152
0.217926
0.208874
0.197931
0.183394
0.16476
0.145953
0.128096
0.112674
0.0991201
0.0867753
0.0753297
0.0665371
0.0613154
0.0585858
0.0562496
0.0517028
0.0485628
0.0501999
0.194178
0.228132
0.249157
0.263502
0.274056
0.28198
0.287137
0.289293
0.288528
0.285268
0.279861
0.272948
0.264477
0.254583
0.242122
0.225077
0.203032
0.180496
0.159144
0.140569
0.124363
0.109734
0.0961138
0.0852128
0.078418
0.07448
0.0706456
0.0637268
0.0559633
0.0547138
0.187312
0.226405
0.255661
0.276141
0.290972
0.303687
0.313387
0.319628
0.3222
0.321396
0.317707
0.311835
0.303757
0.293655
0.280304
0.261445
0.23695
0.21156
0.187405
0.16624
0.147808
0.131254
0.115838
0.103094
0.0947117
0.0896762
0.0845426
0.0759348
0.0652908
0.061105
0.161347
0.212215
0.248782
0.275023
0.29777
0.316314
0.331086
0.341994
0.348462
0.350638
0.349061
0.344646
0.337403
0.327518
0.313693
0.293489
0.267274
0.239659
0.213222
0.189912
0.169609
0.15142
0.134518
0.120211
0.110303
0.104177
0.09792
0.0880724
0.0755066
0.0687532
0.130669
0.188276
0.233301
0.266955
0.295229
0.321517
0.342353
0.358306
0.369008
0.374506
0.375313
0.372608
0.366489
0.357126
0.343123
0.32205
0.294602
0.265237
0.236981
0.211896
0.190005
0.170408
0.152246
0.136619
0.125295
0.117997
0.110791
0.0999774
0.0860109
0.0769676
0.10344
0.162317
0.21303
0.253951
0.288059
0.320036
0.348846
0.369913
0.385026
0.394008
0.397442
0.396578
0.391765
0.383133
0.369178
0.347557
0.319324
0.288658
0.258976
0.23244
0.209196
0.188372
0.169108
0.152367
0.139767
0.131263
0.123217
0.111626
0.0965542
0.0854089
0.0829419
0.136272
0.192103
0.238839
0.277969
0.315399
0.35019
0.377822
0.397356
0.409925
0.416098
0.417209
0.413783
0.406032
0.392286
0.370375
0.341684
0.3102
0.279431
0.251723
0.227327
0.205424
0.185196
0.167514
0.153792
0.144128
0.135312
0.123102
0.107212
0.0941096
0.0709651
0.111285
0.171337
0.223012
0.266892
0.308641
0.348463
0.382654
0.406592
0.422833
0.431788
0.435001
0.432988
0.426218
0.412793
0.390831
0.36193
0.330032
0.298497
0.269862
0.24449
0.221646
0.200591
0.182122
0.167437
0.156718
0.147219
0.134522
0.118061
0.103181
0.0681268
0.0915078
0.150538
0.20702
0.255264
0.300694
0.344978
0.384488
0.413448
0.433173
0.44495
0.450327
0.44974
0.444013
0.431005
0.409205
0.380324
0.348288
0.316305
0.286946
0.260759
0.237102
0.215372
0.196271
0.180786
0.169147
0.159078
0.146024
0.129178
0.112742
0.0735829
0.0834303
0.130175
0.190815
0.243328
0.2924
0.3402
0.38394
0.418293
0.441235
0.455933
0.463487
0.464373
0.459696
0.447208
0.425754
0.397092
0.365118
0.332956
0.303059
0.276201
0.251871
0.229619
0.210031
0.193913
0.181515
0.171019
0.157738
0.140648
0.122896
0.0842879
0.0848663
0.112824
0.174398
0.231159
0.283833
0.334579
0.382233
0.421131
0.447513
0.465011
0.474758
0.47718
0.473536
0.461665
0.440719
0.412446
0.380686
0.348533
0.318288
0.29089
0.266037
0.243408
0.223475
0.206896
0.193915
0.183149
0.169772
0.152549
0.133742
0.0985307
0.0950516
0.106141
0.158343
0.218814
0.275065
0.328806
0.379624
0.422333
0.452607
0.472424
0.484415
0.488421
0.485791
0.474638
0.454341
0.426591
0.395157
0.363124
0.332735
0.304918
0.279681
0.25682
0.236686
0.219807
0.206427
0.195562
0.182218
0.164953
0.145282
0.115498
0.110334
0.109303
0.144153
0.206463
0.266202
0.32296
0.376214
0.422217
0.456191
0.478504
0.492692
0.498354
0.496731
0.486397
0.466868
0.439742
0.408708
0.376876
0.346464
0.318387
0.2929
0.269947
0.249747
0.232717
0.219126
0.208341
0.195158
0.17793
0.157492
0.135536
0.128705
0.12206
0.137224
0.194724
0.257401
0.317128
0.372694
0.421574
0.458656
0.483574
0.499836
0.507249
0.506644
0.497228
0.478563
0.452134
0.421553
0.389963
0.359615
0.331435
0.305809
0.282887
0.262751
0.245706
0.232091
0.221566
0.208672
0.191535
0.170353
0.158738
0.150015
0.139837
0.137461
0.184499
0.248841
0.311426
0.369286
0.420575
0.460291
0.487912
0.506151
0.515383
0.515862
0.507453
0.489729
0.464047
0.433949
0.402563
0.372361
0.344197
0.318542
0.29576
0.275806
0.258875
0.245416
0.235302
0.222846
0.205826
0.183973
0.185056
0.174172
0.160758
0.148574
0.177285
0.240827
0.306001
0.366096
0.419345
0.461341
0.49163
0.511972
0.523049
0.524784
0.517459
0.500744
0.475837
0.446228
0.41512
0.385011
0.356883
0.331296
0.308724
0.289055
0.272363
0.259223
0.249638
0.237787
0.220899
0.198509
0.214391
0.201116
0.184423
0.164831
0.17505
0.233827
0.301012
0.363215
0.417935
0.462051
0.494882
0.51766
0.530709
0.533897
0.527751
0.512116
0.487999
0.458815
0.428097
0.397984
0.369852
0.344346
0.322017
0.302714
0.286362
0.273689
0.264741
0.253649
0.236883
0.213776
0.246623
0.230784
0.210625
0.185243
0.177704
0.228376
0.296616
0.360746
0.41676
0.462776
0.498227
0.523775
0.539007
0.543902
0.539045
0.52459
0.501249
0.472685
0.442101
0.411892
0.383658
0.358157
0.336052
0.31712
0.301154
0.289092
0.280878
0.27067
0.253944
0.23001
0.281664
0.263125
0.239125
0.207849
0.187577
0.225113
0.292979
0.358822
0.416164
0.464097
0.502797
0.531243
0.548941
0.555902
0.552452
0.539344
0.516994
0.488877
0.45827
0.427791
0.399221
0.373582
0.351534
0.332852
0.317256
0.305923
0.298519
0.289256
0.272403
0.247407
0.319531
0.298232
0.270088
0.232874
0.200925
0.223974
0.290266
0.357642
0.416618
0.467427
0.51016
0.541644
0.562231
0.571706
0.569921
0.558469
0.537136
0.509412
0.478586
0.44751
0.418287
0.392178
0.369798
0.351023
0.335793
0.325154
0.318544
0.31012
0.292767
0.266253
0.360548
0.336509
0.304139
0.260208
0.217026
0.225583
0.288811
0.357618
0.420652
0.47685
0.522769
0.557911
0.582007
0.594612
0.595081
0.585723
0.565565
0.53817
0.506826
0.474748
0.444312
0.416951
0.393626
0.374506
0.359431
0.349059
0.342689
0.334508
0.315889
0.287042
0.405834
0.379131
0.342376
0.290601
0.236825
0.231239
0.290089
0.362771
0.433617
0.495691
0.546032
0.585926
0.614346
0.631114
0.635155
0.628634
0.610068
0.583211
0.55121
0.517716
0.485421
0.456003
0.430671
0.409843
0.39359
0.382144
0.374358
0.364797
0.343347
0.310765
0.45845
0.429393
0.388158
0.32737
0.262821
0.245837
0.302147
0.381925
0.461184
0.531931
0.59101
0.637536
0.672126
0.694907
0.704867
0.702697
0.687448
0.662161
0.629433
0.593471
0.557598
0.524173
0.494592
0.469509
0.449139
0.433179
0.420566
0.406047
0.37866
0.339632
0.527135
0.495319
0.447608
0.379298
0.305438
0.278626
0.336607
0.425545
0.518889
0.60301
0.674227
0.732398
0.777126
0.809119
0.827667
0.831388
0.820455
0.79727
0.76415
0.725063
0.683888
0.643977
0.606995
0.573623
0.544057
0.518359
0.495165
0.469147
0.430282
0.37954
0.627154
0.592105
0.540585
0.469572
0.392151
0.361731
0.423484
0.527929
0.639162
0.741104
0.827147
0.898645
0.954571
0.996276
1.02374
1.03372
1.02847
1.00888
0.976584
0.935134
0.888533
0.840799
0.794003
0.74858
0.704881
0.663013
0.621596
0.576368
0.517944
0.447858
0.793408
0.757317
0.707948
0.644661
0.581408
0.560872
0.628127
0.745978
0.869181
0.982956
1.07741
1.15579
1.21676
1.26178
1.29185
1.30429
1.30385
1.28874
1.25978
1.21987
1.17231
1.12075
1.06742
1.01227
0.955215
0.896033
0.833626
0.764879
0.682171
0.588724
1.0012
0.977727
0.950225
0.91986
0.897571
0.906726
0.975501
1.0815
1.187
1.28252
1.36272
1.42852
1.4782
1.51203
1.52742
1.52798
1.51973
1.49951
1.46883
1.43028
1.38592
1.33781
1.28795
1.23728
1.18537
1.13029
1.07075
1.00367
0.925958
0.839197
1.08799
1.08874
1.09228
1.09159
1.09782
1.13059
1.19348
1.25927
1.3177
1.37023
1.4178
1.45762
1.48572
1.49935
1.49037
1.46746
1.44197
1.40826
1.37024
1.33069
1.29156
1.25399
1.21926
1.1891
1.16394
1.14114
1.12024
1.10066
1.07784
1.05125
0.107344
0.134516
0.148837
0.159278
0.16617
0.17002
0.171095
0.169684
0.166119
0.160945
0.15456
0.147562
0.140109
0.132504
0.124309
0.114409
0.102227
0.0888636
0.0755144
0.0628808
0.0505527
0.0383279
0.031531
0.0287895
0.0271954
0.026793
0.0242439
0.0247159
0.0287064
0.0334752
0.174509
0.218702
0.243493
0.257748
0.265546
0.269155
0.269206
0.266046
0.260029
0.251735
0.241498
0.229899
0.216723
0.201976
0.184676
0.164075
0.142948
0.124903
0.110466
0.0983302
0.0854989
0.0697466
0.0525419
0.0450606
0.0440545
0.0404229
0.03721
0.038172
0.0454811
0.0518183
0.215626
0.270139
0.305275
0.326573
0.338999
0.345676
0.347613
0.34522
0.339102
0.329876
0.317913
0.303836
0.287419
0.268647
0.246366
0.219734
0.191995
0.168665
0.150283
0.135056
0.119221
0.0996454
0.0769674
0.0639515
0.0611607
0.0566677
0.0509302
0.0480195
0.0526612
0.0627368
0.23875
0.303298
0.344136
0.370665
0.38746
0.397724
0.402629
0.402364
0.397691
0.389164
0.377159
0.362269
0.344311
0.3233
0.297966
0.267307
0.23501
0.207551
0.185653
0.167453
0.149045
0.126704
0.100335
0.0828428
0.0774532
0.0722122
0.0647871
0.0583827
0.0596176
0.0701262
0.251537
0.316604
0.366337
0.397169
0.418631
0.433174
0.441959
0.445008
0.442791
0.43598
0.424949
0.410263
0.391774
0.369553
0.342172
0.308608
0.273092
0.24236
0.217495
0.196695
0.17614
0.151804
0.123049
0.101874
0.0935716
0.0873015
0.0787937
0.0699547
0.0683986
0.0784329
0.246701
0.312523
0.36692
0.407755
0.436363
0.456021
0.469667
0.477054
0.478181
0.4738
0.464405
0.450605
0.432281
0.409523
0.380691
0.345019
0.307206
0.273886
0.246544
0.223519
0.201161
0.175348
0.145075
0.121007
0.109754
0.10216
0.0928483
0.0823922
0.0783551
0.0875428
0.225799
0.295693
0.357077
0.403813
0.440507
0.468922
0.488323
0.500856
0.506171
0.504721
0.497432
0.484991
0.467304
0.444519
0.414639
0.377497
0.33813
0.3028
0.273407
0.248468
0.224555
0.197614
0.16642
0.140184
0.12614
0.116984
0.106911
0.095294
0.089025
0.0970534
0.196152
0.269025
0.336958
0.392062
0.435683
0.472056
0.499871
0.518131
0.528206
0.530184
0.525299
0.514534
0.497836
0.475382
0.444843
0.406787
0.366443
0.329638
0.29854
0.271932
0.246646
0.218817
0.187111
0.159347
0.14281
0.131946
0.121032
0.108489
0.100189
0.106696
0.164674
0.237579
0.311621
0.373889
0.425523
0.468855
0.5055
0.53014
0.545347
0.551213
0.548918
0.540058
0.5246
0.502759
0.471938
0.433475
0.392615
0.354838
0.322307
0.294215
0.267687
0.23913
0.20721
0.17845
0.159798
0.147225
0.135344
0.121966
0.111826
0.116438
0.136171
0.204195
0.283595
0.352964
0.411389
0.462077
0.505072
0.538163
0.558461
0.568512
0.56902
0.562213
0.548186
0.52719
0.496469
0.458069
0.417096
0.378732
0.345
0.315569
0.28789
0.258722
0.226801
0.197478
0.177122
0.162974
0.150032
0.135819
0.123932
0.12639
0.114029
0.171692
0.254495
0.330649
0.395765
0.452671
0.50225
0.542519
0.568153
0.58261
0.586252
0.581553
0.569101
0.549179
0.51894
0.481036
0.440295
0.401627
0.366883
0.336218
0.307462
0.277762
0.245994
0.216459
0.194815
0.179309
0.165293
0.150212
0.136657
0.136644
0.0995455
0.144544
0.225431
0.3077
0.379308
0.442115
0.49763
0.54364
0.575351
0.594037
0.601091
0.598566
0.587831
0.569206
0.53984
0.502826
0.462606
0.423824
0.38821
0.356386
0.326602
0.296436
0.264919
0.235465
0.212932
0.196324
0.181294
0.165337
0.15031
0.147432
0.093417
0.125322
0.198027
0.2848
0.36255
0.431119
0.491663
0.542889
0.580522
0.603171
0.61396
0.613748
0.604858
0.58776
0.559661
0.523897
0.484418
0.445608
0.409258
0.376297
0.345526
0.31495
0.283752
0.254588
0.231536
0.214105
0.19817
0.18135
0.164931
0.159174
0.0962911
0.117512
0.17531
0.26272
0.346045
0.42013
0.485341
0.54128
0.583799
0.610544
0.625228
0.627641
0.620694
0.605352
0.578923
0.544722
0.506133
0.467325
0.43028
0.396193
0.364466
0.333529
0.302699
0.273961
0.250727
0.232739
0.216035
0.198373
0.180558
0.171937
0.10913
0.120459
0.161906
0.242662
0.330207
0.409526
0.479192
0.53915
0.585838
0.616795
0.635304
0.640746
0.635895
0.622546
0.598181
0.565803
0.52819
0.489358
0.451583
0.416364
0.383698
0.352429
0.321996
0.293768
0.270638
0.252332
0.234995
0.216497
0.19725
0.185796
0.12926
0.135153
0.158871
0.226646
0.31546
0.399523
0.473451
0.536701
0.587218
0.622559
0.64465
0.65359
0.651085
0.639973
0.618046
0.587699
0.551086
0.51216
0.473569
0.437184
0.403571
0.371978
0.341925
0.31426
0.291467
0.273019
0.255158
0.235817
0.215063
0.20079
0.154686
0.156233
0.166496
0.216562
0.302498
0.39031
0.468252
0.534503
0.588413
0.627801
0.653857
0.666755
0.667
0.658375
0.639223
0.611067
0.575438
0.536313
0.496779
0.45917
0.424577
0.392624
0.362882
0.335805
0.313509
0.294993
0.276661
0.256433
0.234064
0.216925
0.184836
0.182853
0.183804
0.214147
0.292208
0.382109
0.463679
0.532869
0.589822
0.633201
0.66366
0.680886
0.684571
0.678665
0.662573
0.636745
0.602069
0.562634
0.521995
0.483089
0.447452
0.415034
0.385487
0.359017
0.337219
0.31855
0.29969
0.278476
0.254364
0.234235
0.219206
0.213031
0.206923
0.219031
0.285414
0.375132
0.459807
0.531856
0.591835
0.63966
0.675017
0.696954
0.70482
0.702037
0.689237
0.6659
0.632167
0.592325
0.550415
0.510166
0.473375
0.440301
0.410797
0.385009
0.363323
0.344157
0.324536
0.302128
0.276095
0.252729
0.257566
0.246621
0.234551
0.232591
0.282432
0.369581
0.456697
0.531485
0.595087
0.648823
0.68925
0.716322
0.729114
0.730194
0.720817
0.700251
0.667533
0.627249
0.584026
0.542428
0.504267
0.47033
0.440768
0.415115
0.392885
0.372556
0.35169
0.32769
0.299197
0.272454
0.299845
0.283451
0.264484
0.251251
0.283216
0.365677
0.454462
0.532466
0.601339
0.661934
0.708262
0.741022
0.759467
0.765579
0.759875
0.742496
0.711015
0.670407
0.626187
0.583215
0.543487
0.508694
0.478283
0.451455
0.427529
0.404959
0.382025
0.355725
0.323962
0.293587
0.346332
0.323885
0.297496
0.274042
0.289011
0.363643
0.453446
0.536948
0.614243
0.681781
0.735109
0.774306
0.799376
0.811758
0.810525
0.796986
0.767197
0.727044
0.682374
0.638327
0.597236
0.560173
0.527062
0.497158
0.469656
0.443383
0.417102
0.387328
0.35104
0.316407
0.398034
0.369246
0.335018
0.301948
0.299812
0.364128
0.456258
0.549007
0.637369
0.713262
0.774878
0.821614
0.854592
0.87458
0.879558
0.870753
0.843823
0.805587
0.761779
0.71623
0.672024
0.630627
0.592367
0.556678
0.52317
0.491302
0.459767
0.424633
0.38222
0.341907
0.45766
0.422645
0.380187
0.336265
0.319836
0.375312
0.470879
0.576798
0.676223
0.76387
0.836153
0.892232
0.934674
0.963839
0.977551
0.974794
0.952959
0.917625
0.873668
0.824935
0.775465
0.727228
0.681115
0.637073
0.595035
0.554864
0.515327
0.472126
0.420817
0.37204
0.531859
0.491442
0.440932
0.385746
0.356204
0.407628
0.509261
0.627025
0.742637
0.845275
0.930838
0.999901
1.05438
1.09408
1.11796
1.12089
1.10307
1.0696
1.02491
0.972599
0.91708
0.860773
0.804902
0.749967
0.69642
0.644558
0.593284
0.538331
0.474069
0.412717
0.634223
0.59051
0.533816
0.468586
0.429093
0.474168
0.586246
0.720494
0.855256
0.975235
1.07585
1.15856
1.22482
1.27388
1.30653
1.31358
1.29854
1.26644
1.221
1.16549
1.10442
1.0406
0.975204
0.908774
0.842015
0.775732
0.709246
0.63855
0.556421
0.477055
0.78664
0.743144
0.685765
0.617088
0.575151
0.616406
0.737311
0.887241
1.03756
1.17292
1.28524
1.37762
1.45124
1.50465
1.53978
1.54541
1.52897
1.49515
1.44788
1.3902
1.3262
1.25884
1.1889
1.11618
1.04075
0.962764
0.882001
0.794889
0.693949
0.59271
1.00571
0.966897
0.919574
0.865158
0.834709
0.87751
0.997062
1.14854
1.29889
1.43493
1.54691
1.63779
1.70826
1.75523
1.77821
1.76796
1.73876
1.69289
1.63827
1.57798
1.51489
1.45118
1.38785
1.3242
1.25854
1.18847
1.11018
1.02052
0.914418
0.802762
1.22527
1.20207
1.17777
1.15731
1.15916
1.2111
1.31561
1.44294
1.5671
1.67923
1.77266
1.84575
1.89696
1.92031
1.90965
1.86404
1.80939
1.74641
1.68231
1.61953
1.56048
1.50619
1.45755
1.4141
1.37365
1.33239
1.28627
1.23047
1.16099
1.08413
1.26424
1.26492
1.26587
1.26858
1.28903
1.34639
1.43402
1.52742
1.61501
1.69496
1.76343
1.81359
1.84056
1.83698
1.79339
1.72224
1.64975
1.57379
1.50229
1.43837
1.38473
1.34148
1.3088
1.28659
1.27372
1.26658
1.26179
1.25577
1.24438
1.22961
0.13475
0.165117
0.179536
0.190573
0.19858
0.203662
0.205771
0.204934
0.201349
0.195521
0.187771
0.178718
0.168392
0.157066
0.144048
0.128167
0.109891
0.0929463
0.079502
0.0691174
0.056757
0.0415022
0.0310163
0.0291368
0.0274952
0.0259991
0.0251119
0.0286571
0.0336547
0.0377383
0.213891
0.263163
0.290478
0.308845
0.320677
0.327596
0.32961
0.326712
0.319437
0.308564
0.29448
0.277866
0.258333
0.23587
0.209409
0.180641
0.155695
0.14129
0.133787
0.126576
0.109488
0.0809773
0.0474071
0.0396164
0.0387608
0.037228
0.0374872
0.0427397
0.0527615
0.0611828
0.260189
0.32151
0.36432
0.3941
0.413404
0.424695
0.428553
0.425466
0.416729
0.403354
0.385845
0.364897
0.340151
0.31152
0.277739
0.240957
0.20947
0.191508
0.181699
0.17168
0.150062
0.11383
0.0683519
0.053225
0.0522877
0.0507743
0.0497642
0.0533616
0.0635485
0.0768818
0.283965
0.357914
0.412395
0.452132
0.478343
0.493936
0.500205
0.498
0.489344
0.47529
0.456374
0.433195
0.405495
0.373178
0.334777
0.29273
0.256555
0.235082
0.222297
0.209208
0.184311
0.143338
0.0908635
0.0686312
0.0661275
0.0644123
0.0621866
0.0639416
0.0732497
0.0897093
0.295453
0.375217
0.443614
0.491516
0.524232
0.544409
0.553876
0.55361
0.546178
0.532648
0.513549
0.489395
0.460009
0.425355
0.383588
0.337817
0.298344
0.273824
0.258222
0.24237
0.215178
0.171358
0.114882
0.0861558
0.0805972
0.0783188
0.0751606
0.075752
0.0841368
0.102764
0.29504
0.3767
0.455229
0.515705
0.554668
0.580123
0.593816
0.596805
0.591584
0.579531
0.561143
0.536901
0.506712
0.470545
0.426183
0.377776
0.336064
0.30905
0.290968
0.272733
0.2439
0.198538
0.139902
0.105612
0.096075
0.092594
0.0886102
0.0882763
0.09594
0.11627
0.287315
0.369125
0.452209
0.520802
0.571962
0.603498
0.6226
0.630159
0.628107
0.618309
0.601362
0.577683
0.547311
0.510222
0.463937
0.413815
0.370738
0.341748
0.321509
0.301214
0.271162
0.225165
0.165766
0.126756
0.112875
0.107397
0.102484
0.101176
0.108299
0.130069
0.268712
0.351409
0.440025
0.514622
0.573058
0.616567
0.642152
0.655384
0.657514
0.65057
0.635604
0.613007
0.582965
0.545406
0.49786
0.4469
0.403195
0.372704
0.350541
0.328409
0.297393
0.251377
0.192241
0.149443
0.131049
0.123046
0.116797
0.11437
0.120895
0.143596
0.245245
0.326863
0.41918
0.500435
0.566633
0.617985
0.65411
0.673801
0.681072
0.67747
0.66491
0.643821
0.614548
0.576912
0.5288
0.47784
0.434159
0.402556
0.378631
0.354763
0.322901
0.277263
0.21914
0.173518
0.150665
0.139691
0.13176
0.12788
0.133611
0.15662
0.219073
0.29785
0.393425
0.480686
0.554499
0.613808
0.659316
0.686565
0.699748
0.699968
0.690138
0.670904
0.642812
0.60546
0.557552
0.507395
0.464286
0.431872
0.406255
0.380651
0.347952
0.302912
0.246309
0.198807
0.17178
0.157451
0.147593
0.14184
0.146483
0.169104
0.192674
0.266552
0.364655
0.457831
0.538719
0.605889
0.658571
0.69519
0.714243
0.718964
0.712041
0.694954
0.668403
0.631825
0.584909
0.536297
0.494202
0.461166
0.433857
0.406424
0.372834
0.328457
0.273661
0.225157
0.19443
0.176499
0.164386
0.156493
0.159654
0.181174
0.168474
0.235562
0.334587
0.433327
0.521105
0.595291
0.655526
0.700146
0.725252
0.735122
0.731335
0.716648
0.691991
0.656806
0.611689
0.565282
0.524522
0.490943
0.461853
0.432453
0.397868
0.354107
0.301235
0.252533
0.218629
0.197008
0.182294
0.172073
0.173323
0.193116
0.14855
0.207704
0.304847
0.408319
0.502686
0.583746
0.650849
0.70227
0.733648
0.749084
0.748748
0.736707
0.714321
0.681248
0.638749
0.595122
0.555873
0.521704
0.490678
0.45913
0.423436
0.38017
0.329216
0.280986
0.244394
0.219141
0.201535
0.188834
0.187641
0.205282
0.135169
0.185986
0.277503
0.38399
0.48432
0.571929
0.645062
0.702528
0.740621
0.761378
0.765084
0.755933
0.736243
0.706058
0.666998
0.626658
0.588905
0.553986
0.520792
0.486913
0.449981
0.407066
0.357986
0.310589
0.27175
0.243026
0.222319
0.206994
0.20279
0.21799
0.130495
0.172701
0.254942
0.361535
0.466872
0.560478
0.639295
0.702165
0.746269
0.772545
0.781084
0.775216
0.758751
0.732221
0.6974
0.660656
0.624318
0.588371
0.552731
0.51637
0.478046
0.435362
0.388235
0.341592
0.300771
0.268778
0.244826
0.226596
0.219023
0.231528
0.137092
0.169117
0.23921
0.34215
0.450978
0.549946
0.63399
0.701699
0.751382
0.783467
0.79755
0.795574
0.783032
0.760796
0.730996
0.698095
0.662887
0.62555
0.587189
0.548232
0.508383
0.465912
0.4206
0.374373
0.331613
0.296517
0.269224
0.247744
0.236458
0.246071
0.156081
0.177655
0.232295
0.327149
0.437124
0.540655
0.629455
0.701358
0.756769
0.795104
0.815362
0.818216
0.810366
0.793106
0.768963
0.739943
0.705517
0.666388
0.625088
0.58344
0.54212
0.500166
0.455823
0.409406
0.364545
0.32641
0.295688
0.270595
0.255146
0.261577
0.185156
0.197684
0.234102
0.317495
0.42579
0.53282
0.625913
0.701767
0.7633
0.808604
0.835608
0.844467
0.84225
0.830755
0.812665
0.787441
0.753326
0.71207
0.66773
0.623365
0.581078
0.539436
0.49485
0.447287
0.399985
0.358731
0.324446
0.295361
0.275205
0.278354
0.221032
0.224232
0.24641
0.313426
0.417406
0.52663
0.623566
0.70406
0.772236
0.82539
0.859792
0.875689
0.880557
0.875705
0.863785
0.842151
0.807891
0.76431
0.716931
0.670175
0.628289
0.585243
0.538813
0.488708
0.438588
0.393952
0.355855
0.322382
0.296968
0.296487