/*--------------------------------*- C++ -*----------------------------------*\
| =========                 |                                                 |
| \\      /  F ield         | OpenFOAM: The Open Source CFD Toolbox           |
|  \\    /   O peration     | Version:  5.0                                   |
|   \\  /    A nd           | Web:      www.OpenFOAM.org                      |
|    \\/     M anipulation  |                                                 |
\*---------------------------------------------------------------------------*/
FoamFile
{
    version     2.0;
    format      ascii;
    class       volScalarField;
    location    "950/air";
    object      nut;
}
// * * * * * * * * * * * * * * * * * * * * * * * * * * * * * * * * * * * * * //

dimensions      [0 2 -1 0 0 0 0];

internalField   nonuniform List<scalar> 
243000
(
0.000123584
0.000132446
0.000133198
0.000131731
0.00012869
0.0001246
0.000119868
0.000114791
0.000109595
0.000104507
9.96877e-05
9.54251e-05
9.1942e-05
8.95388e-05
8.82519e-05
8.77626e-05
8.74376e-05
8.69972e-05
8.639e-05
8.57101e-05
8.50375e-05
8.4428e-05
8.39622e-05
8.38172e-05
8.3756e-05
8.31852e-05
8.12023e-05
7.64227e-05
0.000323186
8.03241e-05
0.000545655
0.000602964
0.000626293
0.000639906
0.000646494
0.000648094
0.000645753
0.000640143
0.000631811
0.000621559
0.0006103
0.000599577
0.000590329
0.000583907
0.000579503
0.000574428
0.000565237
0.000552356
0.000536772
0.000520059
0.000502912
0.000485693
0.000468919
0.000454116
0.000441356
0.0004271
0.000408236
0.000377875
0.000344023
0.000343356
0.000584902
0.000648456
0.00067646
0.000693397
0.000702619
0.000706555
0.000706237
0.00070246
0.000695801
0.000687165
0.000677494
0.000668328
0.000660499
0.000655198
0.000651123
0.000645063
0.000633381
0.000617071
0.000597738
0.000577299
0.000556684
0.000536297
0.000516504
0.000498524
0.000482781
0.000466691
0.000447621
0.000420414
0.000385222
0.000364147
0.000581556
0.000661495
0.000700316
0.000722217
0.000735682
0.000743346
0.00074635
0.000745496
0.000741519
0.000735423
0.000728178
0.00072133
0.000715592
0.000711957
0.000708749
0.000702445
0.000689317
0.000670754
0.000648783
0.000625575
0.000602248
0.000579291
0.000556991
0.000536342
0.000517757
0.000499373
0.000479076
0.000452976
0.000419337
0.000390097
0.000552649
0.0006498
0.000701906
0.000734048
0.000753289
0.000765765
0.00077297
0.000775866
0.000775229
0.00077224
0.00076789
0.000763731
0.000760365
0.000758576
0.000756374
0.000750109
0.00073614
0.000716114
0.000692331
0.000667121
0.000641756
0.000616811
0.000592533
0.000569744
0.000548802
0.000528111
0.000506349
0.000480265
0.000447575
0.000415194
0.000524515
0.000623003
0.000688735
0.000730787
0.000758997
0.000777892
0.000789967
0.00079722
0.000800461
0.000800948
0.000799746
0.000798456
0.00079756
0.000797651
0.000796478
0.000790378
0.000775955
0.000755004
0.000729992
0.000703362
0.000676502
0.000650049
0.000624246
0.000599773
0.00057693
0.00055415
0.000530948
0.00050442
0.000472178
0.000438213
0.000493088
0.000595165
0.00066541
0.000717917
0.000754738
0.000781521
0.000799744
0.000811847
0.000819346
0.000823615
0.000825711
0.000827359
0.000828927
0.000830892
0.000830708
0.000824855
0.000810235
0.000788722
0.000762919
0.000735316
0.000707383
0.000679807
0.00065284
0.000627046
0.000602689
0.000578287
0.000553657
0.000526518
0.000494468
0.000459757
0.000464891
0.0005639
0.000641703
0.000698354
0.000743674
0.000778105
0.000803769
0.00082126
0.00083334
0.000841581
0.000847088
0.000851686
0.00085568
0.000859452
0.000860219
0.000854659
0.000840018
0.000818224
0.000791955
0.000763729
0.000735053
0.000706663
0.000678812
0.000651994
0.000626432
0.000600767
0.000574855
0.000547095
0.000515126
0.000480061
0.000451034
0.000528654
0.000616296
0.000679031
0.000727861
0.000769694
0.000802347
0.000826598
0.000843442
0.000855804
0.000864782
0.000872321
0.000878662
0.000884161
0.00088584
0.000880611
0.000866077
0.000844222
0.000817743
0.000789159
0.000760001
0.000731036
0.000702544
0.000674952
0.000648439
0.000621776
0.000594757
0.000566439
0.000534543
0.00049921
0.00046593
0.000495372
0.000588064
0.000658787
0.000712268
0.000757676
0.000797144
0.000828111
0.000850325
0.000866965
0.000879455
0.00088991
0.00089851
0.000905645
0.000908186
0.000903321
0.000889006
0.000867276
0.000840786
0.000812055
0.000782619
0.000753283
0.000724353
0.000696195
0.000668942
0.000641498
0.000613539
0.00058474
0.000552898
0.000517315
0.000490362
0.000478437
0.000556795
0.000636653
0.000696478
0.000745197
0.000788947
0.000826436
0.000854697
0.000875551
0.000891606
0.000904942
0.000915705
0.00092438
0.000927729
0.000923254
0.000909264
0.000887804
0.000861489
0.000832781
0.000803241
0.000773692
0.000744491
0.000715948
0.000688141
0.000660095
0.00063135
0.000602154
0.000570307
0.000534543
0.000518805
0.000496637
0.000527295
0.000612027
0.000679808
0.000733052
0.000778925
0.000822337
0.000856709
0.000881969
0.000901612
0.00091779
0.000930628
0.000940739
0.000944842
0.000940783
0.000927194
0.000906144
0.000880152
0.000851622
0.000822114
0.000792491
0.000763156
0.000734384
0.000706194
0.000677709
0.000648323
0.000618816
0.00058697
0.000551167
0.000548549
0.00052436
0.000510201
0.000585255
0.000661687
0.000720772
0.000769836
0.000816347
0.000856487
0.000886739
0.000909763
0.000928741
0.000943576
0.000955016
0.000959825
0.000956207
0.00094308
0.000922549
0.000897016
0.000868793
0.000839435
0.000809851
0.000780493
0.000751625
0.000723218
0.000694451
0.000664562
0.000634849
0.000602994
0.000567564
0.000578538
0.000554831
0.000525618
0.000559957
0.000641807
0.00070797
0.000761089
0.000809058
0.000854726
0.000889921
0.00091636
0.000938025
0.000954776
0.000967443
0.000972919
0.000969767
0.000957158
0.000937218
0.000912265
0.000884459
0.000855354
0.000825913
0.000796644
0.00076781
0.000739323
0.000710412
0.000680144
0.000650283
0.000618421
0.000583077
0.000608519
0.0005859
0.000553864
0.000543855
0.00062063
0.000694339
0.000752369
0.000802466
0.000851713
0.000891739
0.000921674
0.000945876
0.000964427
0.000978199
0.00098432
0.000981662
0.000969626
0.000950332
0.000926024
0.000898764
0.000870011
0.000840815
0.000811744
0.00078306
0.000754608
0.000725679
0.000695144
0.00066516
0.000633385
0.0005981
0.000638418
0.000616493
0.000583903
0.000547549
0.000600196
0.000679729
0.000743457
0.000796254
0.000847719
0.000892339
0.000925853
0.000952445
0.00097268
0.000987457
0.000994182
0.000992055
0.000980643
0.00096205
0.000938442
0.0009118
0.00088353
0.000854686
0.00082592
0.000797493
0.00076918
0.000740338
0.000709634
0.000679603
0.000647967
0.00061277
0.000668189
0.000646472
0.000614388
0.000572665
0.000585028
0.000664372
0.000734234
0.000790279
0.000842964
0.000891914
0.000928956
0.000957847
0.000979646
0.000995337
0.00100264
0.00100108
0.000990345
0.000972505
0.000949639
0.000923688
0.000895993
0.000867626
0.000839291
0.000811217
0.000783152
0.000754475
0.000723855
0.000693754
0.000662263
0.000627191
0.0006978
0.000675866
0.000644218
0.000601042
0.00057912
0.000649105
0.000724705
0.000784457
0.000837773
0.000890706
0.000931074
0.000962197
0.000985401
0.00100193
0.0010098
0.00100885
0.000998844
0.000981811
0.00095975
0.000934549
0.000907511
0.000879728
0.00085193
0.000824327
0.000796623
0.00076823
0.000737856
0.000707715
0.00067636
0.000641447
0.000727205
0.0007047
0.000673104
0.000629147
0.000585857
0.000635466
0.000714987
0.00077876
0.000833335
0.000888828
0.000932216
0.000965519
0.000989989
0.0010073
0.00101574
0.00101544
0.00100623
0.000990065
0.000968892
0.000944509
0.000918205
0.000891099
0.000863934
0.000836911
0.0008097
0.000781714
0.000751698
0.00072156
0.000690344
0.000655579
0.000756358
0.00073301
0.000701151
0.00065687
0.000603909
0.000625643
0.000705336
0.000773186
0.000829197
0.000886297
0.000932232
0.000967705
0.000993417
0.00101148
0.0010205
0.00102091
0.00101256
0.000997379
0.000977175
0.000953682
0.000928194
0.000901851
0.000875415
0.000849077
0.000822489
0.000795059
0.000765517
0.000735393
0.00070431
0.000669667
0.00078524
0.000760822
0.000728412
0.000683832
0.000627662
0.000621268
0.000696165
0.000767766
0.00082528
0.000883064
0.000931299
0.000968628
0.000995708
0.00101447
0.00102409
0.0010253
0.00101793
0.00100383
0.000984692
0.000962184
0.000937599
0.000912118
0.000886506
0.000860953
0.000835126
0.000808412
0.000779489
0.000749364
0.00071837
0.000683824
0.000813767
0.00078816
0.000754933
0.000710012
0.000652146
0.00062287
0.000687973
0.000762519
0.000821479
0.000879077
0.000929308
0.000968152
0.000996475
0.00101619
0.00102648
0.0010286
0.00102232
0.00100943
0.000991501
0.000970105
0.000946543
0.000922038
0.000897348
0.000872681
0.000847747
0.000821912
0.000793773
0.000763608
0.000732629
0.000698113
0.000841983
0.00081506
0.000780897
0.000735884
0.000676502
0.000631072
0.000681309
0.000757485
0.000817872
0.00087444
0.000926017
0.000966186
0.000995584
0.00101622
0.0010274
0.0010306
0.0010256
0.00101411
0.000997548
0.000977455
0.000955091
0.000931697
0.000908061
0.000884407
0.00086049
0.000835666
0.000808456
0.000778229
0.000747224
0.000712589
0.000869763
0.00084161
0.000807036
0.0007622
0.000700242
0.000642971
0.000676688
0.000753097
0.000814809
0.000869937
0.000921065
0.000962296
0.000992642
0.00101417
0.00102626
0.0010307
0.00102717
0.00101737
0.00100244
0.00098392
0.000963017
0.000940973
0.000918598
0.000896124
0.000873352
0.000849636
0.000823444
0.000793276
0.000762197
0.000727371
0.000897446
0.000869447
0.000834831
0.000787293
0.000722701
0.000657196
0.000674814
0.000750359
0.000812731
0.000866641
0.000914538
0.000955692
0.000986469
0.00100867
0.00102167
0.00102743
0.00102562
0.00101779
0.00100501
0.000988422
0.000969357
0.000949011
0.000928185
0.000907119
0.000885673
0.000863172
0.000838055
0.000808628
0.000777665
0.000742567
0.000924625
0.000896572
0.000860459
0.000811206
0.000744465
0.000673184
0.000676611
0.000750662
0.000812371
0.000865627
0.000911235
0.000949745
0.000978805
0.00100019
0.00101366
0.00102055
0.00102081
0.00101544
0.0010052
0.000991266
0.000974471
0.000955876
0.000936284
0.000916124
0.000895859
0.000874631
0.000850901
0.000824375
0.000794334
0.000758919
0.000951836
0.000924162
0.000887663
0.000837536
0.000769488
0.000695353
0.000688792
0.000760286
0.000820338
0.00087336
0.00091726
0.000953559
0.000981416
0.00100227
0.00101626
0.00102415
0.00102619
0.00102303
0.0010152
0.00100358
0.00098895
0.000972174
0.000953979
0.000934837
0.000915076
0.000894376
0.000871774
0.000846426
0.000816606
0.000780233
0.000988403
0.000961259
0.000925437
0.000876794
0.000811838
0.000742512
0.000732724
0.000798715
0.00085609
0.000907659
0.000949851
0.000983855
0.00101018
0.00103008
0.00104409
0.00105224
0.00105523
0.00105356
0.00104747
0.00103761
0.00102471
0.00100949
0.000992573
0.000974326
0.000954972
0.000934307
0.00091173
0.000886202
0.000855388
0.00081703
0.00106138
0.00103979
0.00101238
0.000976764
0.000931575
0.000886403
0.00088594
0.000935837
0.000983211
0.00102602
0.00106155
0.00108938
0.00111085
0.00112683
0.00113825
0.0011444
0.00114629
0.00114433
0.00113867
0.00112971
0.00111806
0.00110428
0.00108884
0.00107196
0.00105371
0.00103312
0.00101033
0.000984664
0.000954687
0.00091719
0.00131739
0.00131355
0.00130875
0.00130143
0.00129099
0.00128303
0.00128893
0.0013054
0.00132035
0.00133371
0.00134487
0.00135418
0.00136128
0.00136599
0.00136998
0.00137108
0.00137052
0.00136903
0.00136638
0.00136296
0.00135887
0.00135448
0.00135005
0.00134565
0.00134068
0.00132919
0.00131604
0.00130187
0.00128867
0.00127012
0.000151716
0.000163275
0.000165957
0.000165328
0.000162604
0.000158531
0.000153557
0.000148031
0.000142226
0.000136465
0.000130966
0.000126015
0.000121744
0.000118331
0.00011561
0.000113037
0.0001099
0.000106123
0.000101759
9.70008e-05
9.18506e-05
8.6275e-05
8.10239e-05
7.70545e-05
7.48453e-05
7.31543e-05
7.39974e-05
7.15838e-05
7.9321e-05
8.94065e-05
0.00058151
0.000681265
0.000691538
0.000676678
0.000654748
0.000631462
0.000609511
0.000589145
0.000570422
0.000553176
0.00053625
0.000520065
0.000502482
0.00048245
0.000456221
0.000422122
0.0003812
0.000344668
0.000313814
0.000291162
0.000273559
0.000258272
0.000246294
0.000245638
0.000255493
0.000279142
0.000300381
0.000301549
0.000337877
0.000395797
0.000955821
0.00111218
0.00117354
0.00118868
0.00118385
0.00117065
0.0011537
0.00113394
0.00111241
0.00108974
0.00106433
0.00103669
0.0010033
0.000962416
0.000908473
0.000838003
0.000753706
0.000676588
0.000611657
0.000562454
0.000525425
0.000494137
0.000466995
0.000457377
0.000466325
0.000487941
0.000497504
0.000472315
0.000463457
0.000522082
0.00117048
0.00140551
0.00151402
0.00157193
0.00160358
0.00162194
0.00162995
0.00162745
0.0016152
0.00159563
0.0015683
0.00153286
0.00148591
0.00142534
0.00134603
0.00124299
0.00112028
0.00100626
0.000909093
0.000833701
0.000775548
0.000726316
0.0006831
0.000660796
0.000662519
0.000675226
0.000666423
0.000614094
0.000558647
0.000579706
0.00122038
0.00149505
0.00170198
0.00183739
0.00191667
0.00198145
0.00202712
0.0020536
0.00206033
0.00204946
0.00202372
0.00198405
0.00192635
0.00184913
0.001748
0.001617
0.00146212
0.0013163
0.00119074
0.00109165
0.00101391
0.000948259
0.000890257
0.000854249
0.000845443
0.000850079
0.000824219
0.000747202
0.000654274
0.000636499
0.00115534
0.00150121
0.00176764
0.00196538
0.00213835
0.00226416
0.00235504
0.00241812
0.00245014
0.00245325
0.00243125
0.00238934
0.00232356
0.00223263
0.00211312
0.00195834
0.00177783
0.00160485
0.00145457
0.00133443
0.00123915
0.00115882
0.00108784
0.0010388
0.00101816
0.00101546
0.00097529
0.000877045
0.000753795
0.000701818
0.00104012
0.00142928
0.00176499
0.00203099
0.00226046
0.0024745
0.00262473
0.00272931
0.00279057
0.00281109
0.00279417
0.00275165
0.00268004
0.00257841
0.00244383
0.00226951
0.00206882
0.00187293
0.00170146
0.00156279
0.0014519
0.00135849
0.00127615
0.0012153
0.00118267
0.00117098
0.00112061
0.00100493
0.000856457
0.000773387
0.000904956
0.00130271
0.00169718
0.00204127
0.00233329
0.00260625
0.00284701
0.0029942
0.00308717
0.00312622
0.00311748
0.00307448
0.00299917
0.0028896
0.0027431
0.002553
0.00233668
0.00212223
0.00193279
0.0017778
0.00165306
0.00154801
0.00145565
0.00138435
0.00134027
0.00131824
0.0012607
0.00113125
0.000961437
0.00084859
0.000776537
0.00114434
0.00157932
0.0019926
0.00236072
0.00269821
0.00300287
0.00321836
0.00334392
0.00340297
0.00340328
0.00336237
0.00328402
0.0031694
0.00301374
0.00281132
0.00258263
0.00235455
0.00214986
0.00198052
0.00184348
0.00172799
0.00162683
0.00154643
0.0014919
0.00145941
0.00139654
0.00125647
0.00106886
0.000927166
0.000677061
0.000978768
0.00143451
0.00189788
0.00233888
0.00275038
0.003114
0.0034033
0.00356205
0.0036442
0.00365491
0.00361929
0.00353821
0.00342072
0.00325822
0.00304679
0.00280858
0.0025708
0.00235364
0.00217195
0.00202373
0.00189899
0.00179018
0.00170201
0.00163828
0.00159599
0.00152923
0.00138117
0.0011789
0.00100972
0.000627544
0.000838669
0.00127872
0.00177799
0.00227603
0.00275854
0.00319188
0.00354091
0.00374729
0.0038522
0.0038767
0.00384774
0.00376495
0.00364603
0.00347896
0.00326146
0.00301638
0.00277153
0.00254521
0.00235287
0.00219456
0.00206154
0.00194625
0.00185159
0.00178003
0.00172905
0.00165973
0.00150596
0.0012917
0.00109689
0.000643211
0.000759399
0.00112803
0.00164513
0.0021887
0.00273217
0.00323419
0.00363564
0.00390289
0.00402779
0.00407096
0.00404923
0.0039672
0.00384762
0.00367813
0.00345708
0.00320748
0.00295757
0.00272519
0.00252394
0.0023568
0.00221615
0.00209554
0.00199562
0.00191764
0.00185936
0.00178888
0.00163142
0.00140749
0.00118925
0.00070698
0.000730576
0.00100143
0.00150962
0.00208547
0.00268076
0.00324182
0.00370599
0.00402472
0.0041763
0.00423774
0.00422522
0.00414699
0.00402749
0.00385747
0.00363503
0.00338306
0.00312989
0.00289369
0.0026857
0.00251093
0.00236366
0.00223846
0.00213449
0.0020515
0.00198744
0.0019172
0.00175787
0.00152634
0.00128734
0.000808257
0.000789225
0.000936143
0.00138139
0.00197448
0.00261121
0.00322637
0.00375192
0.0041159
0.00430602
0.00437865
0.00437813
0.00430568
0.0041871
0.00401822
0.00379626
0.00354388
0.00328919
0.00305056
0.0028386
0.00265732
0.00250453
0.00237549
0.00226852
0.00218184
0.00211358
0.00204495
0.00188544
0.00164814
0.00139084
0.000941607
0.000894363
0.00091852
0.00127255
0.00186343
0.00253063
0.00319334
0.00377014
0.00417894
0.00440815
0.00449702
0.00450996
0.0044444
0.00432702
0.00416099
0.00394117
0.00369022
0.00343571
0.00319612
0.00298208
0.00279613
0.0026389
0.00250692
0.00239786
0.00230863
0.00223778
0.0021721
0.00201399
0.00177261
0.0014991
0.00110751
0.00103314
0.000996603
0.00120965
0.00176006
0.00244554
0.00314787
0.00376998
0.00422611
0.00448723
0.00459604
0.00462079
0.00456328
0.0044471
0.00428552
0.00406942
0.00382175
0.00356921
0.00333017
0.00311536
0.00292727
0.00276658
0.00263264
0.00252233
0.00243156
0.00235969
0.00229815
0.00214303
0.0018992
0.00161173
0.00130471
0.00120269
0.00111947
0.00117476
0.00167131
0.00236168
0.00309495
0.00375699
0.00425823
0.00454585
0.00467858
0.00470981
0.00466103
0.00454646
0.00439043
0.00417971
0.00393727
0.00368864
0.00345171
0.00323772
0.00304941
0.00288669
0.00275196
0.00264118
0.00254985
0.00247845
0.00242147
0.00227152
0.002027
0.00172858
0.00152958
0.00139914
0.00127261
0.0012343
0.00160882
0.00228442
0.00303914
0.00373471
0.00427507
0.00458504
0.0047394
0.00477431
0.00473429
0.00462311
0.004473
0.00426944
0.00403439
0.00379184
0.00355924
0.00334752
0.0031604
0.0029977
0.00286337
0.0027529
0.002662
0.00259247
0.00253979
0.00239768
0.00215445
0.00184852
0.00177548
0.0016166
0.00145009
0.00133408
0.00157948
0.00221773
0.00298404
0.00370558
0.00427378
0.00460581
0.00477112
0.00481162
0.0047793
0.00467264
0.00452888
0.00433435
0.00410906
0.00387495
0.00364926
0.00344165
0.00325739
0.0030967
0.00296381
0.0028547
0.00276538
0.00269918
0.00265097
0.002519
0.00227914
0.00196786
0.00203243
0.00184688
0.00164502
0.0014743
0.00155838
0.00216402
0.00293203
0.00367111
0.00425878
0.00460124
0.00476105
0.00481479
0.00478943
0.00468829
0.00455115
0.00436776
0.00415481
0.00393247
0.00371583
0.00351477
0.00333568
0.00317843
0.00304839
0.00294205
0.00285576
0.00279454
0.00275129
0.00263177
0.00239725
0.00208495
0.00228676
0.00207869
0.00184609
0.00162337
0.00161071
0.00212888
0.00288411
0.0036322
0.00421513
0.00454709
0.0047127
0.00477431
0.00475427
0.0046603
0.00452927
0.00435972
0.00416244
0.00395464
0.00375025
0.00355854
0.00338595
0.00323502
0.00310994
0.00300817
0.00292694
0.00287229
0.00283484
0.00273039
0.00250424
0.00219589
0.00252127
0.00229812
0.00204279
0.00177679
0.00167693
0.00211053
0.00283864
0.00356375
0.00410266
0.00443225
0.00461473
0.00467478
0.00465884
0.0045742
0.00444904
0.00429662
0.00411808
0.00392745
0.00373806
0.00355852
0.00339641
0.00325539
0.003138
0.00304308
0.00296977
0.00292285
0.00289255
0.00280617
0.00259283
0.00229485
0.0027159
0.00248899
0.00222391
0.0019211
0.00175034
0.00207564
0.00277195
0.0034243
0.00392934
0.00427525
0.00443994
0.00449643
0.00448448
0.00440991
0.00429291
0.00416135
0.00400287
0.00383191
0.00366046
0.00349806
0.00335111
0.00322316
0.00311689
0.00303243
0.00296985
0.00293236
0.00291107
0.0028458
0.00265197
0.00237316
0.00285084
0.00263322
0.00236896
0.00203958
0.00182101
0.00203605
0.00263849
0.00322531
0.00370664
0.00401843
0.00416601
0.00421963
0.00420985
0.00414879
0.00404706
0.00393854
0.00380057
0.00365259
0.00350297
0.00336034
0.0032313
0.00311946
0.00302782
0.00295752
0.00290921
0.00288453
0.00287492
0.00283279
0.00266688
0.0024193
0.00290916
0.00271135
0.00245332
0.00211583
0.00186001
0.00199157
0.00248709
0.00299101
0.00338749
0.00364645
0.00378551
0.00383776
0.00383918
0.00379934
0.00372175
0.0036375
0.0035252
0.00340201
0.00327523
0.00315382
0.00304385
0.00294967
0.00287439
0.00281983
0.00278684
0.00277519
0.00277786
0.0027562
0.00262445
0.00241902
0.00288581
0.00271046
0.0024649
0.00214149
0.00186318
0.00188708
0.00227358
0.00266716
0.00299336
0.00321125
0.00334339
0.00341339
0.00343985
0.00343074
0.00338629
0.00332957
0.00324774
0.003152
0.00304965
0.0029489
0.00285578
0.00277629
0.0027137
0.0026699
0.0026449
0.00263885
0.0026449
0.00263049
0.00252902
0.00236555
0.00280685
0.00266028
0.00243758
0.00214402
0.001862
0.00178757
0.00204368
0.00236847
0.00264996
0.00285252
0.00299032
0.00308024
0.00313145
0.0031507
0.0031385
0.00310731
0.00305694
0.00298874
0.00291158
0.00283188
0.002755
0.00268707
0.00263159
0.00258981
0.00256198
0.00254745
0.00253988
0.00251699
0.00242609
0.00228377
0.00275775
0.00264169
0.00245895
0.00221854
0.00197583
0.00187438
0.00203375
0.00229206
0.00252647
0.00270729
0.00283599
0.00292738
0.00298584
0.00301633
0.00302047
0.00300527
0.00297764
0.00293312
0.00288005
0.00282338
0.00276706
0.00271572
0.00267236
0.00263693
0.0026082
0.00258356
0.00255771
0.00251419
0.00241474
0.00227408
0.00272301
0.00265067
0.00254192
0.00240097
0.00225487
0.00218741
0.00228191
0.0024468
0.00259832
0.00271866
0.00280832
0.00287447
0.00291752
0.0029389
0.00293806
0.00292404
0.00290098
0.00286838
0.00283065
0.00279273
0.00275708
0.00272573
0.0027008
0.00268213
0.00266722
0.00265029
0.00262965
0.00258942
0.00251529
0.00240432
0.00274849
0.00272159
0.00267593
0.00260492
0.00253437
0.00250361
0.00254036
0.00260987
0.00267318
0.00272062
0.0027611
0.00279363
0.00281467
0.00282275
0.0028151
0.00279979
0.00278111
0.00275812
0.00273511
0.00271586
0.00270216
0.0026949
0.00269439
0.00269953
0.00270769
0.00271409
0.00271429
0.00270904
0.00268348
0.00263523
0.000172618
0.000185988
0.000188487
0.000188073
0.000185555
0.000181623
0.000176685
0.000171049
0.00016497
0.000158763
0.000152618
0.000146797
0.000141342
0.000136361
0.000131569
0.000126276
0.000119925
0.000112802
0.000105329
9.77353e-05
8.94377e-05
7.9745e-05
7.18314e-05
6.66421e-05
0.000308272
0.000324784
0.000308303
7.68826e-05
8.62229e-05
9.66674e-05
0.000678253
0.000851937
0.00091668
0.000924786
0.000909892
0.000886407
0.000858555
0.000827943
0.000795276
0.00076171
0.00072635
0.000689956
0.000649036
0.000602902
0.00054786
0.000486935
0.000430264
0.000391914
0.000370567
0.000361547
0.000353497
0.000330882
0.000301854
0.000338966
0.000413526
0.000417138
0.000337115
0.000299821
0.000387068
0.000479168
0.00110353
0.00140303
0.00157157
0.00165252
0.0016816
0.00168318
0.00166571
0.00163242
0.00158787
0.00153507
0.00147327
0.0014036
0.00132073
0.00122323
0.00110784
0.000980088
0.000858633
0.000772604
0.000719214
0.000692016
0.000669019
0.000621754
0.000558814
0.000588865
0.000671676
0.000658051
0.000557654
0.000499202
0.000576283
0.000712396
0.00139207
0.00182516
0.00206057
0.00220524
0.00229117
0.00233897
0.00235581
0.00234121
0.00230308
0.00224578
0.00216967
0.00207511
0.00195757
0.00181394
0.00164498
0.00145827
0.00128015
0.00114858
0.00106169
0.00101045
0.000968695
0.000901236
0.00080897
0.000811307
0.000890523
0.000887876
0.00077233
0.000672038
0.00070782
0.000847217
0.00159521
0.00206138
0.00241149
0.00261209
0.00276141
0.00286604
0.00292995
0.00294874
0.0029273
0.00287428
0.00279226
0.00267902
0.00253036
0.00234926
0.00213552
0.00189923
0.00167461
0.00150324
0.0013856
0.0013111
0.00125112
0.0011676
0.00105571
0.00102997
0.00109244
0.00109921
0.000978533
0.000841234
0.000830998
0.000963182
0.00165551
0.00213192
0.00253687
0.00287199
0.0031184
0.00328881
0.00340951
0.00347171
0.0034745
0.00343005
0.00334548
0.00321806
0.0030456
0.00283258
0.00258096
0.00230388
0.00204218
0.00183614
0.00169072
0.00159439
0.00151768
0.00142149
0.00129734
0.00124709
0.00128785
0.00129785
0.00117856
0.00101443
0.000957929
0.00107759
0.0016337
0.00212204
0.00258671
0.00299139
0.00334274
0.00362718
0.00381217
0.003924
0.00395813
0.00392396
0.00383675
0.00369985
0.00350829
0.00327011
0.0029863
0.00267656
0.00238546
0.0021494
0.001979
0.00186229
0.00177023
0.00166392
0.00153245
0.00146239
0.00148062
0.00148865
0.00137368
0.00119126
0.00109254
0.00119557
0.00154895
0.00205958
0.00258108
0.00305872
0.00348562
0.00386623
0.00415189
0.00431679
0.00438596
0.00436569
0.00427665
0.00413137
0.00392496
0.0036671
0.00335698
0.00302154
0.00270689
0.00244546
0.0022524
0.00211671
0.00201048
0.00189586
0.00176041
0.0016753
0.00167228
0.00167486
0.0015648
0.00137069
0.00123434
0.00131539
0.00142527
0.00194739
0.00252716
0.00307897
0.00358658
0.00404176
0.00443246
0.00465716
0.00476366
0.00476108
0.00467069
0.00451843
0.00430076
0.00402822
0.00369754
0.00334235
0.00300837
0.00272647
0.00251268
0.0023594
0.00223995
0.00211822
0.00198098
0.00188519
0.00186353
0.00185869
0.0017528
0.00155175
0.00138222
0.00143602
0.00128596
0.00179465
0.00242702
0.0030569
0.00364722
0.00418219
0.00463459
0.00495464
0.00509541
0.00511373
0.00502349
0.00486518
0.0046401
0.00435749
0.00401177
0.00364189
0.00329212
0.00299357
0.00276118
0.0025918
0.00246001
0.00233205
0.00219427
0.00209162
0.00205456
0.00204155
0.00193856
0.00173382
0.00153482
0.00155753
0.00115146
0.00161649
0.00228603
0.0029952
0.00367145
0.00428694
0.00480776
0.00520276
0.00538209
0.00542412
0.00533918
0.00517653
0.00494639
0.00465837
0.00430273
0.00392233
0.00355989
0.00324777
0.00299911
0.00281505
0.00267185
0.0025383
0.00240094
0.00229439
0.00224532
0.00222419
0.00212274
0.00191669
0.00169225
0.00167819
0.00103953
0.00144831
0.0021233
0.00289664
0.00366028
0.00435797
0.00494939
0.00539708
0.00563088
0.00569201
0.00562055
0.00545603
0.00522241
0.00493352
0.00457269
0.00418521
0.00381297
0.00348992
0.0032275
0.00303024
0.00287642
0.00273787
0.00260163
0.00249344
0.00243553
0.00240676
0.00230567
0.00210009
0.00185717
0.00180043
0.000975525
0.00130738
0.0019586
0.00277386
0.00361526
0.00439607
0.00505717
0.00555086
0.00583844
0.00591966
0.00587031
0.00570635
0.00547059
0.00518476
0.00482289
0.0044313
0.00405213
0.00372028
0.00344742
0.00323811
0.00307449
0.0029315
0.00279693
0.00268853
0.00262463
0.00258881
0.00248713
0.00228319
0.00202674
0.00192963
0.000976808
0.00123029
0.00181277
0.00264486
0.00354846
0.00440447
0.00512996
0.00567385
0.00600464
0.00611232
0.0060909
0.00593003
0.00569263
0.00541237
0.00505333
0.00466048
0.00427738
0.0039393
0.0036588
0.00343893
0.00326645
0.00311955
0.00298698
0.00287914
0.00281163
0.00276917
0.00266622
0.00246461
0.00219908
0.00206539
0.00109221
0.00122509
0.0017058
0.00252206
0.00347223
0.00439599
0.00518249
0.00577316
0.00613744
0.00627662
0.00628311
0.00612708
0.00588878
0.00561442
0.00526242
0.00487134
0.00448776
0.00414643
0.00386084
0.00363219
0.00345204
0.00330181
0.00317121
0.00306421
0.00299462
0.00294591
0.00284119
0.00264238
0.00237185
0.00220685
0.00129588
0.00135278
0.00166536
0.00241748
0.00339255
0.00437388
0.00521638
0.0058477
0.00624192
0.00641858
0.00643968
0.00629433
0.00605665
0.00578715
0.00544682
0.00506086
0.00468083
0.00433978
0.00405162
0.00381634
0.00362996
0.00347728
0.00334757
0.00324188
0.00317097
0.00311606
0.00300927
0.00281374
0.00254206
0.00235238
0.00155817
0.00154472
0.00169203
0.00234097
0.0033163
0.00434157
0.00523284
0.00590005
0.00632111
0.00653152
0.00654937
0.00642539
0.00619172
0.00592531
0.00560044
0.00522388
0.00485223
0.00451544
0.00422738
0.00398829
0.00379748
0.00364219
0.00351319
0.00340904
0.00333676
0.00327534
0.00316648
0.002975
0.00270591
0.0024989
0.00185637
0.0017925
0.00182839
0.00230895
0.00324988
0.00430226
0.00523269
0.00593105
0.00637611
0.00659705
0.00661457
0.00650984
0.00628768
0.00602203
0.00571421
0.00535287
0.00499515
0.00466709
0.00438208
0.00414197
0.00394844
0.00379146
0.00366335
0.00356075
0.00348617
0.00341784
0.00330736
0.00312128
0.00285871
0.00264291
0.00216757
0.00205855
0.00200599
0.0022948
0.00319652
0.00425807
0.00521591
0.00593885
0.006393
0.00658678
0.00662339
0.00653631
0.00633175
0.00606779
0.00577705
0.00543797
0.00510017
0.00478496
0.00450525
0.00426799
0.0040743
0.00391729
0.00379046
0.00368894
0.00361076
0.0035357
0.00342494
0.00324645
0.00299449
0.00278013
0.00247156
0.00232295
0.00221982
0.0023603
0.0031603
0.00420941
0.00518032
0.0059016
0.00631843
0.00651782
0.00656208
0.00649136
0.00630725
0.00605125
0.00577645
0.00546762
0.00515406
0.00485475
0.00458397
0.00435353
0.00416309
0.00400806
0.00388264
0.0037812
0.00369961
0.00361937
0.00351095
0.0033431
0.00310551
0.00290288
0.00274546
0.00256552
0.00241471
0.00244918
0.00312604
0.0041538
0.00510842
0.00576007
0.00613858
0.00636337
0.00641536
0.00635907
0.00619559
0.00595991
0.00570098
0.00542868
0.00514176
0.00486009
0.00460403
0.00438365
0.00419951
0.00404763
0.00392407
0.00382361
0.00374068
0.00365879
0.00355669
0.00340319
0.00318296
0.00300326
0.00297066
0.00276921
0.0025844
0.00254796
0.00305944
0.0040561
0.00492576
0.0054931
0.0058838
0.0061065
0.006171
0.00612484
0.00598531
0.00578105
0.00554281
0.0053104
0.00505026
0.00479046
0.0045526
0.00434448
0.00416784
0.00402186
0.00390284
0.0038058
0.00372444
0.0036462
0.00355503
0.00341939
0.00321931
0.00307267
0.00313388
0.00292247
0.00271756
0.00263757
0.00297751
0.00382132
0.0045901
0.00514073
0.0055336
0.00574369
0.00581941
0.00578557
0.00567684
0.00551254
0.00530587
0.00511224
0.00488068
0.00464732
0.00442923
0.00423589
0.00407068
0.00393321
0.00382044
0.00372799
0.00365096
0.00358106
0.00350407
0.00338749
0.00321433
0.00309766
0.00323073
0.00301959
0.00280163
0.00266988
0.00287009
0.00355973
0.00420742
0.00473659
0.00508185
0.00528738
0.0053728
0.00536403
0.00529498
0.00517779
0.00501354
0.00485652
0.00465966
0.00445584
0.00426183
0.00408608
0.00393333
0.00380416
0.00369705
0.00360934
0.00353757
0.00347626
0.00341283
0.00331438
0.00316535
0.0030738
0.00327043
0.00306653
0.00283863
0.00265426
0.00271681
0.00327038
0.00380108
0.00425126
0.00457581
0.00478477
0.00489038
0.00492062
0.00489886
0.00483189
0.00471564
0.00459301
0.00443402
0.00426079
0.0040923
0.00393591
0.00379659
0.00367585
0.00357359
0.00348883
0.00341973
0.00336275
0.00330684
0.00322138
0.00308334
0.00300374
0.00327956
0.00308846
0.00285542
0.00262742
0.00257016
0.00290844
0.003366
0.00378102
0.00410644
0.00432698
0.00446369
0.00453576
0.00455838
0.00453516
0.00446274
0.00436926
0.0042433
0.00409808
0.00395413
0.00381781
0.00369381
0.00358416
0.00348927
0.00340881
0.00334149
0.0032848
0.0032286
0.00314671
0.00300433
0.00291196
0.00330097
0.00313183
0.00290956
0.0026664
0.00253351
0.0026992