/*--------------------------------*- C++ -*----------------------------------*\
| =========                 |                                                 |
| \\      /  F ield         | OpenFOAM: The Open Source CFD Toolbox           |
|  \\    /   O peration     | Version:  5.0                                   |
|   \\  /    A nd           | Web:      www.OpenFOAM.org                      |
|    \\/     M anipulation  |                                                 |
\*---------------------------------------------------------------------------*/
FoamFile
{
    version     2.0;
    format      ascii;
    class       volScalarField;
    location    "1550/porous";
    object      T;
}
// * * * * * * * * * * * * * * * * * * * * * * * * * * * * * * * * * * * * * //

dimensions      [0 0 0 1 0 0 0];

internalField   nonuniform List<scalar> 
36000
(
400
400
400
400
399.999
399.587
399.212
398.86
398.526
398.203
397.889
397.582
397.279
396.981
396.687
396.397
396.109
395.824
395.542
395.262
394.984
394.707
394.431
394.155
393.878
393.602
393.327
393.055
392.786
392.52
392.26
392.005
391.759
391.527
391.312
391.833
392.186
392.454
392.673
392.859
400
400
400
400
399.999
399.636
399.306
398.999
398.709
398.432
398.165
397.905
397.652
397.405
397.162
396.923
396.688
396.456
396.228
396.002
395.778
395.557
395.337
395.116
394.896
394.677
394.46
394.244
394.031
393.822
393.617
393.417
393.224
393.041
392.868
393.211
393.452
393.638
393.786
393.917
400
400
400
400
399.999
399.643
399.322
399.024
398.745
398.48
398.226
397.981
397.744
397.513
397.288
397.069
396.854
396.644
396.437
396.233
396.033
395.836
395.64
395.445
395.25
395.056
394.865
394.676
394.489
394.307
394.129
393.957
393.791
393.633
393.486
393.802
394.028
394.203
394.343
394.464
400
400
400
400
399.999
399.643
399.322
399.025
398.747
398.484
398.233
397.991
397.757
397.53
397.31
397.096
396.887
396.682
396.482
396.285
396.093
395.903
395.715
395.528
395.341
395.156
394.973
394.792
394.615
394.442
394.273
394.111
393.955
393.807
393.668
393.979
394.203
394.377
394.518
394.638
400
400
400
400
399.999
399.643
399.322
399.026
398.748
398.485
398.234
397.993
397.76
397.534
397.315
397.102
396.895
396.692
396.493
396.299
396.109
395.921
395.736
395.551
395.367
395.184
395.004
394.826
394.651
394.481
394.316
394.156
394.004
393.859
393.723
394.033
394.257
394.43
394.572
394.692
400
400
400
400
399.999
399.643
399.322
399.025
398.747
398.484
398.232
397.991
397.758
397.532
397.314
397.101
396.893
396.691
396.493
396.3
396.11
395.924
395.739
395.554
395.37
395.189
395.009
394.832
394.658
394.489
394.324
394.166
394.014
393.87
393.735
394.044
394.268
394.442
394.584
394.704
400
400
400
400
399.999
399.643
399.322
399.026
398.748
398.485
398.234
397.992
397.76
397.534
397.316
397.103
396.896
396.694
396.497
396.304
396.115
395.929
395.744
395.559
395.376
395.194
395.015
394.838
394.665
394.495
394.331
394.173
394.021
393.878
393.743
394.052
394.275
394.449
394.591
394.711
400
400
400
400
399.999
399.643
399.323
399.027
398.749
398.486
398.235
397.993
397.761
397.536
397.317
397.105
396.898
396.696
396.499
396.306
396.118
395.932
395.747
395.562
395.378
395.197
395.017
394.841
394.668
394.498
394.334
394.176
394.025
393.881
393.746
394.054
394.278
394.452
394.593
394.713
400
400
400
400
399.999
399.643
399.323
399.028
398.751
398.488
398.237
397.997
397.764
397.54
397.322
397.11
396.903
396.702
396.505
396.313
396.124
395.938
395.753
395.569
395.385
395.203
395.024
394.848
394.675
394.506
394.341
394.183
394.032
393.888
393.752
394.061
394.285
394.458
394.599
394.719
400
400
400
400
399.999
399.644
399.324
399.03
398.753
398.491
398.24
398
397.768
397.543
397.326
397.114
396.908
396.707
396.511
396.319
396.129
395.943
395.758
395.573
395.39
395.209
395.029
394.853
394.68
394.511
394.347
394.189
394.037
393.893
393.757
394.066
394.289
394.462
394.604
394.723
400
400
400
400
399.999
399.645
399.326
399.032
398.756
398.494
398.244
398.004
397.772
397.548
397.331
397.12
396.915
396.714
396.518
396.325
396.136
395.949
395.764
395.58
395.397
395.216
395.037
394.861
394.688
394.519
394.355
394.196
394.044
393.9
393.764
394.072
394.296
394.469
394.61
394.73
400
400
400
400
399.999
399.645
399.327
399.033
398.758
398.497
398.247
398.007
397.775
397.552
397.335
397.125
396.92
396.719
396.523
396.329
396.138
395.951
395.767
395.583
395.401
395.22
395.041
394.865
394.693
394.524
394.359
394.201
394.049
393.904
393.768
394.076
394.3
394.473
394.614
394.733
400
400
400
400
399.999
399.646
399.329
399.036
398.761
398.5
398.25
398.01
397.779
397.556
397.339
397.129
396.924
396.724
396.526
396.332
396.14
395.953
395.769
395.586
395.404
395.224
395.045
394.87
394.697
394.528
394.364
394.205
394.053
393.908
393.772
394.08
394.303
394.476
394.617
394.737
400
400
400
400
399.999
399.647
399.33
399.038
398.763
398.502
398.253
398.013
397.781
397.558
397.341
397.131
396.926
396.725
396.527
396.332
396.14
395.952
395.768
395.586
395.405
395.225
395.047
394.872
394.699
394.531
394.366
394.207
394.054
393.909
393.772
394.08
394.304
394.477
394.618
394.737
400
400
400
400
399.999
399.648
399.331
399.039
398.765
398.504
398.255
398.015
397.783
397.559
397.342
397.132
396.927
396.726
396.527
396.332
396.14
395.952
395.768
395.586
395.406
395.227
395.049
394.874
394.702
394.533
394.368
394.209
394.056
393.91
393.772
394.081
394.304
394.477
394.618
394.738
400
400
400
400
399.999
399.649
399.334
399.042
398.768
398.507
398.258
398.017
397.785
397.56
397.343
397.132
396.927
396.726
396.527
396.332
396.14
395.953
395.769
395.587
395.407
395.229
395.052
394.876
394.704
394.535
394.37
394.21
394.056
393.908
393.769
394.078
394.302
394.476
394.617
394.737
400
400
400
400
399.999
399.65
399.334
399.043
398.769
398.508
398.258
398.018
397.785
397.56
397.342
397.131
396.926
396.725
396.527
396.332
396.14
395.953
395.769
395.588
395.408
395.23
395.053
394.877
394.705
394.535
394.37
394.209
394.055
393.907
393.767
394.077
394.301
394.474
394.616
394.735
400
400
400
400
399.999
399.65
399.336
399.044
398.77
398.509
398.259
398.018
397.785
397.56
397.341
397.13
396.924
396.724
396.527
396.332
396.141
395.954
395.771
395.589
395.409
395.231
395.053
394.878
394.705
394.535
394.369
394.208
394.053
393.904
393.764
394.074
394.298
394.472
394.613
394.733
400
400
400
400
399.999
399.65
399.336
399.045
398.771
398.51
398.259
398.018
397.784
397.559
397.34
397.128
396.922
396.722
396.525
396.332
396.142
395.955
395.771
395.589
395.408
395.229
395.052
394.876
394.703
394.533
394.366
394.204
394.048
393.898
393.757
394.068
394.292
394.466
394.608
394.729
400
400
400
400
399.999
399.651
399.336
399.045
398.771
398.51
398.259
398.018
397.784
397.558
397.339
397.126
396.92
396.72
396.524
396.332
396.142
395.955
395.77
395.587
395.406
395.226
395.049
394.873
394.699
394.528
394.361
394.199
394.042
393.892
393.75
394.062
394.287
394.461
394.603
394.724
400
400
400
400
399.999
399.651
399.337
399.046
398.772
398.51
398.259
398.017
397.783
397.557
397.337
397.124
396.918
396.718
396.522
396.33
396.14
395.952
395.767
395.583
395.401
395.221
395.043
394.866
394.692
394.521
394.353
394.19
394.033
393.882
393.74
394.052
394.278
394.452
394.595
394.716
400
400
400
400
399.999
399.651
399.337
399.046
398.772
398.511
398.259
398.017
397.783
397.557
397.337
397.124
396.917
396.717
396.522
396.329
396.139
395.951
395.765
395.58
395.397
395.217
395.038
394.862
394.687
394.516
394.347
394.184
394.026
393.875
393.732
394.045
394.271
394.446
394.589
394.71
400
400
400
400
399.999
399.652
399.338
399.047
398.772
398.511
398.259
398.017
397.782
397.556
397.336
397.122
396.916
396.715
396.52
396.327
396.136
395.947
395.76
395.575
395.392
395.211
395.032
394.855
394.681
394.508
394.34
394.176
394.017
393.866
393.723
394.037
394.263
394.439
394.582
394.703
400
400
400
400
399.999
399.652
399.338
399.048
398.774
398.512
398.26
398.018
397.784
397.557
397.337
397.124
396.917
396.716
396.52
396.327
396.136
395.947
395.759
395.574
395.391
395.209
395.03
394.853
394.678
394.506
394.337
394.172
394.013
393.862
393.718
394.032
394.259
394.435
394.578
394.699
400
400
400
400
399.999
399.652
399.339
399.048
398.774
398.512
398.26
398.018
397.783
397.556
397.336
397.123
396.916
396.715
396.518
396.325
396.133
395.943
395.755
395.57
395.386
395.205
395.025
394.847
394.672
394.499
394.33
394.165
394.006
393.853
393.71
394.024
394.251
394.427
394.57
394.692
400
400
400
400
399.999
399.653
399.34
399.05
398.776
398.514
398.263
398.02
397.785
397.558
397.338
397.124
396.917
396.716
396.519
396.324
396.132
395.941
395.753
395.567
395.383
395.201
395.02
394.842
394.666
394.493
394.322
394.156
393.996
393.842
393.697
394.012
394.239
394.415
394.558
394.68
400
400
400
400
399.999
399.653
399.34
399.049
398.775
398.513
398.261
398.017
397.782
397.554
397.332
397.117
396.909
396.705
396.506
396.309
396.115
395.922
395.732
395.544
395.357
395.173
394.99
394.809
394.63
394.454
394.281
394.112
393.948
393.791
393.642
393.958
394.186
394.362
394.505
394.626
400
400
400
400
399.999
399.654
399.34
399.048
398.772
398.507
398.253
398.007
397.767
397.535
397.309
397.089
396.874
396.665
396.459
396.255
396.054
395.854
395.657
395.461
395.266
395.073
394.882
394.693
394.506
394.321
394.138
393.96
393.786
393.619
393.461
393.783
394.012
394.189
394.331
394.453
400
400
400
400
399.999
399.647
399.325
399.023
398.735
398.458
398.19
397.929
397.674
397.424
397.18
396.94
396.706
396.475
396.247
396.022
395.797
395.574
395.352
395.132
394.913
394.695
394.478
394.263
394.049
393.838
393.629
393.423
393.221
393.028
392.843
393.192
393.436
393.624
393.774
393.907
400
400
400
400
399.999
399.599
399.232
398.885
398.552
398.229
397.914
397.604
397.299
396.999
396.703
396.412
396.125
395.841
395.56
395.28
395.001
394.723
394.446
394.17
393.895
393.621
393.348
393.077
392.807
392.54
392.274
392.013
391.757
391.51
391.279
391.808
392.165
392.436
392.657
392.844
400
400
400
400
399.999
399.781
399.531
399.263
398.984
398.701
398.415
398.129
397.843
397.557
397.274
396.991
396.71
396.431
396.153
395.876
395.601
395.327
395.053
394.78
394.506
394.232
393.959
393.687
393.418
393.152
392.889
392.631
392.38
392.139
391.912
392.159
392.394
392.604
392.79
392.953
400
400
400
400
400
399.812
399.601
399.376
399.144
398.909
398.673
398.437
398.203
397.97
397.74
397.512
397.286
397.062
396.84
396.62
396.402
396.185
395.969
395.754
395.54
395.325
395.112
394.9
394.69
394.482
394.278
394.077
393.882
393.693
393.512
393.627
393.748
393.865
393.972
394.073
400
400
400
400
400
399.817
399.612
399.396
399.174
398.95
398.727
398.506
398.287
398.071
397.859
397.65
397.443
397.24
397.04
396.842
396.647
396.454
396.263
396.072
395.883
395.694
395.507
395.321
395.138
394.957
394.78
394.606
394.438
394.276
394.121
394.223
394.331
394.437
394.535
394.627
400
400
400
400
400
399.816
399.612
399.397
399.176
398.954
398.733
398.514
398.299
398.087
397.879
397.674
397.474
397.276
397.082
396.891
396.703
396.517
396.333
396.151
395.97
395.789
395.61
395.434
395.259
395.087
394.919
394.755
394.596
394.444
394.298
394.399
394.506
394.611
394.709
394.8
400
400
400
400
400
399.816
399.613
399.397
399.176
398.955
398.734
398.516
398.301
398.091
397.883
397.68
397.481
397.285
397.092
396.903
396.718
396.534
396.353
396.173
395.994
395.816
395.64
395.466
395.294
395.125
394.96
394.8
394.644
394.495
394.352
394.452
394.56
394.665
394.763
394.853
400
400
400
400
400
399.816
399.612
399.396
399.175
398.953
398.732
398.514
398.299
398.088
397.881
397.678
397.479
397.283
397.091
396.903
396.717
396.535
396.354
396.175
395.996
395.819
395.644
395.47
395.299
395.131
394.967
394.807
394.653
394.504
394.362
394.463
394.571
394.676
394.774
394.865
400
400
400
400
400
399.816
399.612
399.396
399.175
398.953
398.733
398.515
398.3
398.089
397.882
397.68
397.48
397.285
397.094
396.906
396.721
396.539
396.358
396.179
396.001
395.824
395.649
395.476
395.305
395.137
394.973
394.814
394.66
394.511
394.369
394.47
394.578
394.683
394.781
394.872
400
400
400
400
400
399.816
399.612
399.396
399.175
398.953
398.732
398.514
398.3
398.089
397.883
397.68
397.481
397.286
397.095
396.907
396.722
396.54
396.36
396.181
396.002
395.825
395.65
395.477
395.307
395.139
394.975
394.816
394.662
394.513
394.371
394.472
394.58
394.685
394.783
394.874
400
400
400
400
400
399.816
399.612
399.397
399.177
398.955
398.734
398.517
398.302
398.092
397.886
397.684
397.485
397.29
397.1
396.912
396.728
396.546
396.365
396.186
396.008
395.831
395.656
395.483
395.313
395.146
394.982
394.822
394.668
394.52
394.378
394.478
394.586
394.691
394.789
394.88
400
400
400
400
400
399.816
399.613
399.398
399.178
398.956
398.736
398.518
398.304
398.094
397.888
397.686
397.488
397.294
397.103
396.916
396.732
396.55
396.369
396.19
396.012
395.835
395.66
395.488
395.317
395.15
394.986
394.827
394.672
394.524
394.382
394.482
394.59
394.695
394.793
394.884
400
400
400
400
400
399.817
399.614
399.399
399.179
398.958
398.738
398.521
398.308
398.098
397.893
397.691
397.494
397.3
397.109
396.922
396.737
396.555
396.375
396.196
396.018
395.842
395.667
395.494
395.324
395.157
394.993
394.834
394.679
394.531
394.388
394.489
394.596
394.701
394.799
394.89
400
400
400
400
400
399.817
399.614
399.4
399.181
398.96
398.74
398.523
398.31
398.101
397.895
397.694
397.497
397.304
397.113
396.925
396.74
396.558
396.377
396.199
396.021
395.845
395.671
395.498
395.328
395.161
394.997
394.838
394.683
394.534
394.392
394.492
394.6
394.705
394.803
394.894
400
400
400
400
400
399.818
399.615
399.401
399.182
398.962
398.743
398.526
398.313
398.104
397.899
397.698
397.501
397.307
397.116
396.928
396.742
396.559
396.379
396.201
396.024
395.848
395.674
395.502
395.332
395.165
395.001
394.842
394.687
394.538
394.395
394.496
394.603
394.708
394.806
394.897
400
400
400
400
400
399.818
399.616
399.403
399.184
398.964
398.745
398.528
398.315
398.105
397.9
397.699
397.502
397.309
397.117
396.929
396.742
396.559
396.379
396.201
396.024
395.849
395.675
395.503
395.334
395.167
395.003
394.844
394.689
394.539
394.396
394.496
394.604
394.709
394.807
394.898
400
400
400
400
400
399.818
399.617
399.403
399.185
398.965
398.746
398.53
398.316
398.107
397.901
397.7
397.503
397.309
397.118
396.929
396.743
396.559
396.379
396.201
396.025
395.85
395.677
395.505
395.335
395.169
395.005
394.845
394.69
394.54
394.397
394.497
394.605
394.709
394.807
394.898
400
400
400
400
400
399.819
399.618
399.405
399.187
398.967
398.748
398.532
398.318
398.108
397.903
397.701
397.504
397.31
397.118
396.929
396.743
396.56
396.38
396.202
396.026
395.851
395.678
395.507
395.337
395.17
395.007
394.847
394.691
394.54
394.395
394.496
394.603
394.708
394.806
394.897
400
400
400
400
400
399.819
399.618
399.406
399.188
398.968
398.749
398.532
398.318
398.108
397.902
397.701
397.503
397.309
397.118
396.929
396.743
396.56
396.38
396.202
396.026
395.852
395.679
395.508
395.338
395.171
395.007
394.846
394.69
394.539
394.394
394.494
394.602
394.707
394.805
394.896
400
400
400
400
400
399.82
399.619
399.407
399.189
398.969
398.75
398.533
398.319
398.108
397.902
397.7
397.502
397.308
397.118
396.929
396.744
396.561
396.381
396.203
396.028
395.853
395.68
395.509
395.339
395.172
395.007
394.846
394.689
394.538
394.392
394.492
394.6
394.705
394.803
394.894
400
400
400
400
400
399.82
399.619
399.407
399.189
398.97
398.75
398.533
398.319
398.108
397.901
397.699
397.501
397.307
397.116
396.928
396.743
396.561
396.381
396.203
396.027
395.852
395.679
395.507
395.337
395.169
395.004
394.843
394.686
394.533
394.387
394.487
394.595
394.7
394.798
394.889
400
400
400
400
400
399.82
399.62
399.408
399.19
398.97
398.751
398.533
398.319
398.108
397.901
397.698
397.5
397.306
397.116
396.928
396.743
396.561
396.381
396.203
396.026
395.851
395.677
395.505
395.335
395.166
395.001
394.839
394.681
394.528
394.382
394.482
394.59
394.695
394.794
394.885
400
400
400
400
400
399.82
399.62
399.408
399.19
398.97
398.751
398.533
398.318
398.107
397.9
397.697
397.498
397.304
397.114
396.927
396.742
396.559
396.378
396.199
396.022
395.846
395.672
395.5
395.329
395.16
394.995
394.832
394.674
394.52
394.373
394.474
394.582
394.687
394.786
394.877
400
400
400
400
400
399.82
399.62
399.409
399.191
398.971
398.752
398.534
398.319
398.108
397.901
397.697
397.499
397.305
397.114
396.927
396.742
396.559
396.378
396.198
396.02
395.844
395.669
395.497
395.326
395.157
394.99
394.827
394.669
394.515
394.367
394.468
394.576
394.682
394.78
394.872
400
400
400
400
400
399.82
399.621
399.409
399.191
398.971
398.752
398.534
398.319
398.107
397.9
397.697
397.498
397.303
397.113
396.925
396.74
396.557
396.375
396.195
396.016
395.84
395.665
395.492
395.32
395.151
394.984
394.821
394.661
394.507
394.359
394.46
394.569
394.674
394.773
394.865
400
400
400
400
400
399.821
399.621
399.41
399.193
398.973
398.753
398.536
398.321
398.109
397.902
397.699
397.5
397.305
397.115
396.927
396.741
396.557
396.375
396.195
396.016
395.839
395.664
395.491
395.319
395.149
394.982
394.819
394.659
394.505
394.356
394.457
394.566
394.671
394.77
394.862
400
400
400
400
400
399.821
399.622
399.41
399.193
398.973
398.754
398.536
398.321
398.109
397.902
397.698
397.499
397.305
397.114
396.925
396.739
396.555
396.372
396.192
396.013
395.835
395.66
395.486
395.314
395.144
394.977
394.812
394.652
394.497
394.348
394.45
394.558
394.664
394.763
394.855
400
400
400
400
400
399.822
399.623
399.412
399.195
398.976
398.756
398.539
398.324
398.112
397.905
397.701
397.502
397.307
397.115
396.926
396.739
396.555
396.372
396.19
396.011
395.833
395.657
395.482
395.309
395.139
394.97
394.805
394.644
394.488
394.338
394.439
394.547
394.653
394.751
394.843
400
400
400
400
400
399.822
399.623
399.412
399.194
398.975
398.755
398.536
398.321
398.108
397.899
397.695
397.494
397.297
397.104
396.913
396.724
396.537
396.352
396.168
395.986
395.806
395.627
395.45
395.275
395.101
394.93
394.762
394.597
394.438
394.284
394.385
394.494
394.6
394.698
394.79
400
400
400
400
400
399.822
399.623
399.411
399.193
398.971
398.748
398.527
398.308
398.091
397.878
397.668
397.462
397.26
397.06
396.862
396.666
396.472
396.28
396.089
395.899
395.711
395.524
395.338
395.154
394.972
394.792
394.614
394.44
394.271
394.108
394.21
394.32
394.426
394.525
394.617
400
400
400
400
400
399.818
399.612
399.391
399.162
398.929
398.693
398.457
398.222
397.989
397.757
397.529
397.303
397.079
396.858
396.638
396.419
396.202
395.985
395.77
395.555
395.342
395.129
394.917
394.707
394.498
394.291
394.087
393.885
393.689
393.5
393.614
393.736
393.854
393.962
394.063
400
400
400
400
399.999
399.787
399.543
399.279
399.003
398.721
398.436
398.149
397.861
397.575
397.289
397.006
396.725
396.446
396.169
395.893
395.617
395.343
395.068
394.795
394.522
394.25
393.978
393.708
393.438
393.171
392.905
392.642
392.383
392.131
391.891
392.139
392.376
392.588
392.776
392.939
400
400
400
400
400
399.863
399.704
399.525
399.33
399.121
398.902
398.673
398.437
398.195
397.949
397.7
397.448
397.194
396.938
396.681
396.424
396.165
395.906
395.646
395.385
395.123
394.86
394.598
394.336
394.076
393.818
393.564
393.314
393.07
392.836
392.91
393.005
393.108
393.214
393.313
400
400
400
400
400
399.882
399.749
399.602
399.444
399.276
399.101
398.92
398.735
398.546
398.354
398.16
397.965
397.769
397.572
397.375
397.177
396.98
396.782
396.584
396.385
396.186
395.987
395.788
395.59
395.394
395.199
395.006
394.817
394.632
394.451
394.452
394.467
394.493
394.524
394.56
400
400
400
400
400
399.885
399.756
399.615
399.465
399.307
399.143
398.974
398.803
398.629
398.454
398.278
398.102
397.925
397.749
397.573
397.398
397.224
397.05
396.876
396.702
396.529
396.355
396.183
396.012
395.842
395.674
395.509
395.347
395.188
395.035
395.037
395.05
395.072
395.098
395.129
400
400
400
400
400
399.885
399.756
399.616
399.466
399.309
399.147
398.981
398.812
398.642
398.471
398.299
398.128
397.957
397.787
397.617
397.449
397.281
397.114
396.948
396.782
396.616
396.451
396.288
396.125
395.964
395.805
395.649
395.496
395.347
395.203
395.208
395.223
395.245
395.273
395.305
400
400
400
400
400
399.885
399.756
399.616
399.467
399.31
399.148
398.983
398.815
398.645
398.475
398.305
398.135
397.965
397.796
397.629
397.462
397.297
397.132
396.968
396.805
396.642
396.479
396.318
396.158
396
395.845
395.691
395.542
395.396
395.255
395.261
395.276
395.3
395.328
395.361
400
400
400
400
400
399.885
399.756
399.615
399.466
399.309
399.146
398.981
398.812
398.643
398.473
398.302
398.132
397.963
397.794
397.627
397.461
397.296
397.132
396.969
396.806
396.643
396.482
396.321
396.162
396.005
395.85
395.698
395.549
395.404
395.264
395.27
395.287
395.31
395.339
395.372
400
400
400
400
400
399.885
399.756
399.616
399.466
399.309
399.147
398.981
398.813
398.644
398.474
398.303
398.133
397.964
397.796
397.629
397.464
397.299
397.136
396.972
396.809
396.647
396.486
396.326
396.167
396.01
395.855
395.703
395.555
395.41
395.27
395.277
395.293
395.317
395.346
395.379
400
400
400
400
400
399.885
399.756
399.616
399.466
399.309
399.147
398.981
398.813
398.643
398.473
398.303
398.133
397.964
397.796
397.629
397.464
397.299
397.135
396.972
396.809
396.647
396.486
396.326
396.167
396.01
395.856
395.704
395.556
395.411
395.271
395.278
395.294
395.318
395.347
395.38
400
400
400
400
400
399.885
399.756
399.616
399.467
399.31
399.148
398.982
398.814
398.645
398.475
398.305
398.136
397.967
397.799
397.633
397.468
397.303
397.14
396.977
396.814
396.652
396.491
396.331
396.172
396.015
395.861
395.709
395.561
395.417
395.276
395.283
395.299
395.323
395.352
395.386
400
400
400
400
400
399.885
399.757
399.616
399.467
399.31
399.149
398.983
398.815
398.646
398.476
398.307
398.137
397.969
397.802
397.635
397.47
397.306
397.142
396.979
396.816
396.654
396.493
396.334
396.175
396.018
395.864
395.712
395.564
395.42
395.279
395.286
395.302
395.326
395.355
395.389
400
400
400
400
400
399.885
399.757
399.617
399.468
399.312
399.15
398.985
398.818
398.649
398.48
398.31
398.141
397.973
397.806
397.64
397.474
397.31
397.147
396.984
396.821
396.66
396.499
396.339
396.181
396.024
395.87
395.718
395.57
395.425
395.285
395.292
395.308
395.332
395.361
395.394
400
400
400
400
400
399.885
399.757
399.618
399.469
399.313
399.151
398.986
398.819
398.65
398.481
398.312
398.144
397.976
397.809
397.642
397.476
397.312
397.149
396.986
396.824
396.662
396.501
396.342
396.184
396.027
395.873
395.721
395.573
395.428
395.288
395.295
395.311
395.335
395.364
395.397
400
400
400
400
400
399.886
399.758
399.619
399.47
399.314
399.153
398.988
398.821
398.653
398.484
398.315
398.146
397.979
397.811
397.644
397.479
397.314
397.151
396.988
396.826
396.665
396.504
396.345
396.187
396.03
395.876
395.725
395.576
395.432
395.291
395.298
395.314
395.338
395.367
395.4
400
400
400
400
400
399.886
399.759
399.62
399.471
399.315
399.154
398.99
398.822
398.654
398.485
398.316
398.148
397.98
397.812
397.645
397.479
397.314
397.151
396.988
396.826
396.665
396.505
396.346
396.188
396.032
395.878
395.726
395.577
395.433
395.292
395.298
395.315
395.338
395.367
395.401
400
400
400
400
400
399.886
399.759
399.62
399.472
399.316
399.156
398.991
398.824
398.655
398.486
398.317
398.148
397.98
397.813
397.646
397.479
397.314
397.151
396.988
396.827
396.666
396.506
396.347
396.189
396.033
395.879
395.727
395.579
395.434
395.293
395.299
395.315
395.339
395.368
395.402
400
400
400
400
400
399.887
399.76
399.621
399.473
399.318
399.157
398.992
398.825
398.656
398.487
398.318
398.149
397.981
397.813
397.646
397.48
397.315
397.151
396.989
396.828
396.667
396.507
396.348
396.191
396.035
395.88
395.729
395.58
395.434
395.292
395.299
395.315
395.339
395.368
395.401
400
400
400
400
400
399.887
399.76
399.622
399.474
399.319
399.158
398.993
398.825
398.656
398.487
398.318
398.149
397.981
397.813
397.646
397.48
397.315
397.152
396.989
396.828
396.667
396.508
396.349
396.191
396.035
395.881
395.729
395.579
395.433
395.291
395.298
395.314
395.338
395.367
395.4
400
400
400
400
400
399.887
399.761
399.622
399.475
399.319
399.158
398.993
398.826
398.657
398.487
398.318
398.149
397.981
397.813
397.646
397.48
397.316
397.153
396.99
396.829
396.669
396.509
396.35
396.192
396.036
395.881
395.729
395.579
395.433
395.29
395.297
395.313
395.337
395.366
395.399
400
400
400
400
400
399.887
399.761
399.623
399.475
399.319
399.158
398.993
398.826
398.657
398.487
398.317
398.148
397.98
397.812
397.646
397.48
397.316
397.152
396.99
396.828
396.668
396.508
396.349
396.191
396.034
395.879
395.727
395.577
395.43
395.287
395.293
395.309
395.333
395.362
395.395
400
400
400
400
400
399.887
399.761
399.623
399.475
399.32
399.159
398.994
398.826
398.657
398.487
398.317
398.148
397.979
397.812
397.646
397.481
397.316
397.153
396.99
396.828
396.667
396.507
396.348
396.19
396.033
395.877
395.724
395.574
395.427
395.283
395.29
395.306
395.329
395.358
395.392
400
400
400
400
400
399.887
399.761
399.623
399.475
399.32
399.159
398.994
398.826
398.656
398.486
398.316
398.147
397.978
397.811
397.645
397.479
397.315
397.151
396.988
396.826
396.664
396.504
396.344
396.186
396.028
395.873
395.719
395.568
395.421
395.277
395.283
395.299
395.323
395.351
395.385
400
400
400
400
400
399.887
399.761
399.623
399.476
399.321
399.16
398.995
398.827
398.657
398.487
398.317
398.148
397.979
397.812
397.646
397.48
397.315
397.151
396.988
396.825
396.664
396.503
396.343
396.184
396.026
395.87
395.716
395.565
395.417
395.273
395.279
395.295
395.319
395.348
395.381
400
400
400
400
400
399.887
399.761
399.624
399.476
399.321
399.16
398.995
398.827
398.657
398.487
398.317
398.147
397.979
397.811
397.645
397.479
397.314
397.149
396.986
396.823
396.661
396.5
396.339
396.18
396.022
395.866
395.712
395.56
395.412
395.267
395.273
395.289
395.313
395.342
395.375
400
400
400
400
400
399.888
399.762
399.624
399.477
399.322
399.161
398.996
398.829
398.659
398.489
398.319
398.149
397.981
397.814
397.647
397.481
397.316
397.151
396.987
396.824
396.662
396.501
396.34
396.181
396.023
395.866
395.711
395.559
395.411
395.266
395.272
395.288
395.311
395.34
395.374
400
400
400
400
400
399.888
399.762
399.625
399.477
399.322
399.162
398.997
398.829
398.659
398.489
398.319
398.149
397.981
397.813
397.646
397.48
397.314
397.149
396.985
396.822
396.659
396.497
396.336
396.177
396.018
395.861
395.706
395.554
395.405
395.26
395.265
395.281
395.305
395.333
395.367
400
400
400
400
400
399.888
399.763
399.626
399.479
399.324
399.164
398.999
398.832
398.662
398.492
398.322
398.152
397.983
397.815
397.648
397.481
397.315
397.15
396.985
396.821
396.658
396.495
396.334
396.173
396.014
395.856
395.7
395.547
395.397
395.251
395.256
395.271
395.294
395.322
395.355
400
400
400
400
400
399.888
399.763
399.625
399.478
399.323
399.162
398.997
398.829
398.659
398.487
398.316
398.145
397.975
397.805
397.636
397.467
397.299
397.131
396.964
396.798
396.632
396.467
396.303
396.14
395.978
395.817
395.659
395.502
395.349
395.199
395.203
395.218
395.24
395.268
395.3
400
400
400
400
400
399.888
399.763
399.625
399.477
399.32
399.158
398.99
398.819
398.645
398.47
398.294
398.118
397.942
397.766
397.591
397.415
397.24
397.066
396.891
396.717
396.544
396.371
396.199
396.027
395.856
395.687
395.519
395.353
395.19
395.031
395.033
395.045
395.067
395.093
395.124
400
400
400
400
400
399.885
399.756
399.612
399.456
399.29
399.116
398.935
398.75
398.561
398.369
398.175
397.98
397.784
397.587
397.39
397.193
396.995
396.797
396.598
396.4
396.201
396.002
395.804
395.606
395.409
395.212
395.017
394.824
394.634
394.448
394.448
394.462
394.488
394.519
394.554
400
400
400
400
400
399.867
399.711
399.536
399.343
399.136
398.917
398.688
398.452
398.21
397.963
397.713
397.461
397.208
396.953
396.696
396.439
396.18
395.921
395.66
395.4
395.138
394.877
394.616
394.354
394.094
393.834
393.576
393.321
393.07
392.826
392.899
392.993
393.097
393.203
393.302
400
400
400
400
400
399.895
399.778
399.648
399.507
399.355
399.193
399.021
398.84
398.652
398.456
398.254
398.046
397.833
397.616
397.395
397.17
396.942
396.711
396.478
396.241
396.002
395.762
395.52
395.277
395.034
394.791
394.55
394.311
394.076
393.847
393.844
393.854
393.876
393.907
393.933
400
400
400
400
400
399.909
399.81
399.703
399.588
399.467
399.34
399.206
399.068
398.924
398.776
398.625
398.47
398.312
398.151
397.988
397.823
397.656
397.487
397.317
397.144
396.97
396.796
396.62
396.444
396.268
396.092
395.917
395.744
395.573
395.405
395.368
395.337
395.313
395.295
395.279
400
400
400
400
400
399.911
399.815
399.712
399.603
399.489
399.369
399.246
399.118
398.987
398.853
398.717
398.578
398.438
398.296
398.152
398.008
397.862
397.716
397.568
397.42
397.27
397.12
396.97
396.82
396.67
396.521
396.373
396.226
396.082
395.941
395.912
395.888
395.869
395.854
395.842
400
400
400
400
400
399.911
399.815
399.712
399.604
399.491
399.373
399.251
399.126
398.998
398.867
398.734
398.6
398.464
398.327
398.189
398.05
397.911
397.771
397.631
397.489
397.347
397.205
397.063
396.921
396.78
396.639
396.5
396.363
396.228
396.096
396.071
396.051
396.035
396.023
396.015
400
400
400
400
400
399.911
399.815
399.713
399.605
399.491
399.374
399.252
399.128
399
398.87
398.739
398.605
398.471
398.335
398.199
398.062
397.925
397.787
397.649
397.51
397.37
397.23
397.091
396.951
396.813
396.675
396.539
396.405
396.273
396.144
396.121
396.103
396.088
396.077
396.072
400
400
400
400
400
399.911
399.815
399.712
399.604
399.49
399.373
399.251
399.126
398.998
398.868
398.737
398.603
398.469
398.333
398.198
398.061
397.924
397.787
397.649
397.51
397.371
397.232
397.093
396.954
396.817
396.68
396.544
396.411
396.28
396.152
396.13
396.112
396.098
396.088
396.083
400
400
400
400
400
399.911
399.815
399.713
399.604
399.491
399.373
399.251
399.126
398.999
398.869
398.737
398.604
398.47
398.335
398.199
398.063
397.926
397.789
397.651
397.513
397.374
397.235
397.096
396.958
396.82
396.684
396.549
396.416
396.285
396.157
396.136
396.118
396.104
396.094
396.089
400
400
400
400
400
399.911
399.815
399.713
399.604
399.491
399.373
399.251
399.126
398.998
398.868
398.737
398.604
398.469
398.334
398.198
398.062
397.926
397.789
397.651
397.512
397.373
397.235
397.096
396.958
396.82
396.684
396.549
396.416
396.285
396.157
396.135
396.118
396.104
396.094
396.09
400