/*--------------------------------*- C++ -*----------------------------------*\
| =========                 |                                                 |
| \\      /  F ield         | OpenFOAM: The Open Source CFD Toolbox           |
|  \\    /   O peration     | Version:  5.0                                   |
|   \\  /    A nd           | Web:      www.OpenFOAM.org                      |
|    \\/     M anipulation  |                                                 |
\*---------------------------------------------------------------------------*/
FoamFile
{
    version     2.0;
    format      ascii;
    class       volScalarField;
    location    "1100/air";
    object      alphat;
}
// * * * * * * * * * * * * * * * * * * * * * * * * * * * * * * * * * * * * * //

dimensions      [1 -1 -1 0 0 0 0];

internalField   nonuniform List<scalar> 
243000
(
0.000139497
0.000147915
0.000147926
0.000145627
0.000141792
0.000137046
0.000131822
0.000126385
0.000120881
0.000115433
0.000110086
0.000104969
0.000100214
9.61708e-05
9.31103e-05
9.13771e-05
9.07409e-05
9.07241e-05
9.07565e-05
9.06359e-05
9.02842e-05
8.97377e-05
8.90748e-05
8.83788e-05
8.77775e-05
8.71905e-05
0.000379233
0.000378612
7.77877e-05
9.19238e-05
0.000612674
0.000670168
0.000691673
0.000702385
0.000705257
0.000703029
0.000697049
0.000688138
0.00067681
0.000663557
0.000648789
0.000633576
0.000618737
0.000606291
0.000597343
0.000593006
0.00059015
0.000585651
0.000576722
0.000564274
0.000548924
0.000531512
0.000512583
0.000492706
0.000473002
0.000454637
0.000433354
0.000397666
0.000360779
0.000375644
0.000648612
0.000715938
0.000741613
0.000755835
0.000760776
0.000759777
0.000754537
0.000746083
0.000735125
0.000722417
0.000708593
0.000694897
0.0006822
0.00067257
0.000666785
0.000665401
0.000664151
0.000659525
0.000648956
0.000633921
0.00061563
0.000595146
0.000573055
0.000549824
0.00052633
0.000503712
0.000479574
0.000446738
0.000408239
0.000387275
0.00063616
0.000719152
0.000757896
0.000779362
0.000788616
0.000791033
0.000788316
0.000781916
0.000772834
0.000762103
0.000750573
0.00073963
0.000730181
0.000724278
0.000722333
0.000724277
0.000724914
0.000720629
0.000709089
0.000692197
0.00067163
0.000648702
0.000624098
0.000598244
0.000571775
0.000545673
0.000518852
0.000486868
0.00044944
0.000420038
0.000596948
0.000693934
0.000746595
0.000777934
0.000795248
0.000803421
0.000804906
0.000801948
0.000795979
0.000788371
0.000780218
0.000773026
0.000767677
0.000766135
0.000768413
0.000773723
0.0007762
0.000772374
0.000760248
0.000742033
0.000719736
0.000694915
0.000668354
0.000640463
0.000611737
0.000582995
0.000553693
0.000521594
0.0004853
0.000452603
0.000559086
0.000654723
0.00071503
0.000758193
0.000784799
0.00080035
0.00080774
0.000809691
0.000808033
0.000804599
0.000800759
0.000798169
0.0007976
0.000800924
0.000807615
0.000816173
0.000820343
0.000816993
0.000804475
0.000785291
0.000761697
0.000735428
0.000707362
0.000677908
0.000647474
0.000616772
0.000585537
0.000552621
0.000516845
0.000482253
0.000524064
0.000611341
0.000677807
0.000725764
0.000760562
0.000784441
0.000799135
0.000807309
0.000811155
0.000812948
0.00081431
0.000817083
0.00082192
0.000830462
0.00084161
0.000853233
0.000858919
0.000855999
0.000843224
0.000823318
0.000798743
0.000771371
0.000742173
0.000711536
0.000679821
0.000647669
0.000614981
0.000580969
0.000545248
0.000509579
0.000512787
0.000564531
0.000636305
0.00069112
0.000731112
0.000759264
0.000781328
0.00079653
0.000806884
0.000814847
0.000822382
0.000831229
0.000841987
0.000855991
0.000871546
0.000886012
0.000893024
0.000890467
0.000877521
0.00085709
0.000831767
0.000803563
0.000773515
0.000742017
0.000709368
0.000676169
0.000642404
0.000607273
0.000571346
0.000535135
0.000538367
0.000537671
0.000592336
0.000652315
0.000699247
0.000733177
0.000759062
0.000779462
0.000796614
0.000811578
0.000826159
0.000841647
0.000858774
0.000878427
0.000898222
0.000915292
0.000923449
0.00092118
0.000908119
0.000887308
0.000861423
0.000832584
0.000801922
0.000769829
0.000736557
0.000702625
0.000668069
0.000631906
0.000595656
0.000559206
0.000574221
0.000556195
0.000562003
0.00061144
0.000663817
0.000704758
0.000736001
0.000760421
0.000782036
0.000804079
0.000826072
0.000849084
0.000873012
0.000898403
0.000922228
0.000941649
0.000950768
0.000948733
0.000935591
0.000914511
0.000888218
0.000858911
0.000827804
0.000795329
0.000761691
0.000727281
0.000692164
0.00065526
0.000618573
0.000581946
0.000612144
0.000594105
0.000570714
0.000581331
0.000626738
0.000673393
0.000711216
0.00074091
0.000766362
0.000793474
0.000823342
0.000854342
0.000885285
0.000916381
0.000943999
0.0009655
0.000975407
0.000973556
0.00096038
0.000939113
0.000912557
0.000882921
0.000851507
0.000818789
0.000784973
0.000750305
0.000714821
0.000677503
0.000640331
0.00060349
0.00065005
0.000634986
0.00061002
0.000583259
0.00059783
0.00064078
0.000684395
0.000720372
0.00075078
0.000781214
0.000818582
0.000858013
0.000896067
0.00093273
0.000963843
0.00098715
0.000997682
0.000995978
0.000982809
0.000961443
0.000934739
0.000904908
0.000873304
0.000840456
0.000806584
0.000771837
0.000736164
0.000698619
0.000661076
0.000623968
0.000687666
0.000675026
0.000652742
0.000620956
0.000593984
0.000613771
0.000656726
0.00069868
0.000734966
0.000769844
0.000812499
0.000860375
0.000905691
0.000947705
0.000981977
0.00100682
0.00101783
0.00101624
0.00100313
0.000981745
0.000955002
0.0009251
0.000893421
0.00086055
0.000826737
0.000792042
0.000756326
0.000718699
0.000680785
0.000643441
0.000725073
0.000713712
0.000693659
0.000663121
0.000622162
0.000604155
0.00063222
0.000676499
0.000718809
0.000759102
0.000805706
0.000861857
0.000914402
0.000961474
0.000998545
0.00102465
0.00103603
0.00103452
0.00102151
0.00100021
0.000973535
0.000943682
0.000912051
0.000879283
0.00084564
0.000811102
0.000775461
0.000737886
0.000699641
0.000662072
0.000762391
0.000751343
0.000732432
0.00070372
0.000663289
0.000618598
0.000617553
0.00065569
0.000702632
0.000748894
0.000799472
0.000862857
0.000922364
0.000974122
0.00101363
0.00104074
0.00105239
0.00105097
0.00103811
0.00101699
0.00099049
0.000960807
0.000929352
0.000896808
0.000863444
0.000829164
0.000793689
0.000756195
0.00071771
0.000680023
0.00079971
0.000788254
0.000769605
0.000741967
0.000702807
0.000650151
0.00061834
0.000639346
0.000687147
0.000739131
0.000794291
0.000863649
0.000929671
0.000985672
0.00102725
0.00105516
0.00106702
0.00106569
0.00105302
0.00103217
0.00100597
0.000976596
0.000945446
0.000913249
0.000880262
0.000846331
0.000811082
0.00077377
0.000735143
0.000697398
0.000837042
0.000824652
0.000805627
0.000778317
0.000740292
0.00068928
0.000636631
0.000631219
0.000673668
0.000730009
0.000790018
0.000864335
0.000936349
0.000996084
0.00103941
0.00106794
0.00107995
0.00107874
0.00106633
0.00104583
0.00102006
0.000991137
0.000960432
0.000928698
0.000896181
0.000862676
0.000827784
0.000790727
0.000752033
0.000714292
0.000874375
0.00086065
0.000840794
0.000813257
0.000775785
0.000725839
0.000665087
0.000633383
0.000663353
0.000721817
0.000786561
0.000864904
0.000942341
0.00100528
0.00105004
0.00107906
0.00109123
0.00109018
0.00107806
0.00105803
0.00103283
0.0010045
0.000974378
0.000943229
0.000911291
0.00087832
0.000843871
0.000807152
0.000768467
0.00073081
0.00091163
0.00089629
0.00087528
0.00084711
0.000809644
0.000760245
0.000697603
0.000646089
0.000657527
0.000714927
0.000783843
0.000865275
0.00094742
0.0010131
0.00105907
0.00108849
0.00110084
0.00110002
0.00108831
0.0010689
0.00104435
0.00101673
0.000987335
0.000956902
0.000925658
0.00089334
0.000859436
0.000823155
0.00078453
0.000747001
0.000948857
0.000931639
0.000909219
0.000880111
0.000842267
0.000793254
0.000730712
0.000666877
0.000656639
0.00070973
0.000781774
0.00086523
0.000951416
0.00101942
0.00106638
0.00109618
0.00110877
0.00110831
0.00109717
0.00107848
0.0010547
0.0010279
0.000999365
0.000969777
0.000939347
0.000907817
0.0008746
0.000838878
0.000800339
0.000762962
0.000986055
0.000966817
0.000942786
0.000912505
0.000874063
0.000825975
0.000763303
0.000692163
0.000662535
0.000706637
0.000780282
0.000864705
0.000954098
0.00102409
0.00107186
0.00110206
0.00111501
0.00111504
0.00110464
0.00108682
0.00106394
0.00103809
0.00101054
0.000981934
0.000952454
0.000921848
0.000889487
0.000854473
0.000816041
0.00077882
0.00102396
0.00100232
0.000976376
0.000944697
0.000905633
0.00085798
0.000794772
0.000719492
0.000673503
0.000705722
0.000779408
0.000864179
0.000955112
0.00102689
0.0010753
0.00110597
0.00111948
0.00112018
0.00111069
0.00109392
0.00107211
0.00104735
0.00102093
0.000993469
0.000965096
0.000935562
0.000904242
0.000870173
0.000832164
0.000794911
0.0010621
0.00103892
0.00101072
0.000977603
0.000939406
0.000889949
0.000825354
0.000747282
0.000688516
0.000707331
0.000779338
0.000864071
0.000954191
0.00102687
0.00107628
0.00110756
0.00112187
0.00112349
0.00111516
0.00109965
0.00107915
0.00105568
0.00103061
0.00100448
0.000977401
0.000949117
0.000919037
0.000886159
0.000849004
0.000811475
0.00109871
0.00107563
0.00104813
0.00101465
0.000973524
0.000921484
0.000855117
0.000774835
0.000706469
0.000711758
0.000780462
0.000864528
0.000951475
0.00102412
0.00107409
0.00110608
0.00112143
0.00112433
0.00111745
0.00110359
0.00108469
0.00106282
0.00103939
0.0010149
0.000989414
0.000962646
0.000934022
0.000902514
0.000866425
0.00082862
0.00113388
0.00111281
0.00108576
0.00104962
0.00100572
0.00095192
0.000884354
0.00080249
0.000727169
0.000719876
0.000783651
0.000866477
0.000949353
0.00101835
0.001068
0.00110054
0.00111701
0.0011215
0.00111644
0.00110441
0.00108758
0.00106784
0.00104648
0.00102402
0.00100056
0.000975769
0.000948965
0.000919041
0.000884139
0.000846308
0.0011639
0.00114216
0.00111413
0.00107814
0.00103525
0.000982061
0.000914844
0.000832654
0.000752718
0.000734248
0.000792703
0.000873752
0.000952614
0.00101772
0.00106514
0.00109655
0.00111361
0.00111946
0.00111627
0.00110628
0.00109132
0.00107303
0.00105267
0.00103098
0.00100955
0.000987153
0.000962629
0.000934689
0.000901266
0.00086483
0.00118508
0.00116382
0.00113868
0.00110721
0.00106758
0.00101711
0.000952564
0.00087286
0.00079249
0.000765022
0.000817687
0.000895859
0.000970473
0.00103148
0.00107614
0.00110593
0.00112273
0.00112925
0.00112751
0.0011191
0.00110568
0.00108871
0.00106936
0.00104842
0.00102698
0.00100465
0.000980647
0.000954065
0.000923382
0.000888678
0.00122311
0.00120262
0.00117901
0.00115065
0.0011156
0.0010713
0.00101488
0.000945576
0.000874738
0.000845325
0.000889509
0.000960768
0.00102807
0.00108253
0.00112212
0.00114817
0.0011627
0.00116844
0.00116685
0.00115905
0.00114649
0.0011304
0.0011118
0.00109141
0.00107
0.00104753
0.00102347
0.000997132
0.000967188
0.000932429
0.00129898
0.00128293
0.00126604
0.00124734
0.00122532
0.00119786
0.001163
0.00112084
0.00107934
0.00106196
0.00109227
0.00114386
0.00119275
0.001232
0.00125968
0.0012768
0.00128526
0.00128741
0.00128392
0.00127568
0.00126366
0.00124864
0.00123135
0.00121226
0.00119191
0.00116979
0.00114535
0.00111871
0.00108937
0.00105554
0.00156207
0.00156231
0.00156319
0.00156331
0.00156158
0.00155659
0.00154832
0.00153787
0.00152876
0.00152343
0.00152819
0.0015412
0.00155497
0.0015663
0.00157261
0.00157649
0.00157726
0.00157688
0.001575
0.00157259
0.00156962
0.00156623
0.00156252
0.00155865
0.00155431
0.00154607
0.00153234
0.00151692
0.00150287
0.0014859
0.000172322
0.00018346
0.00018503
0.000182999
0.000178848
0.000173505
0.000167516
0.000161224
0.00015483
0.000148536
0.000142462
0.000136833
0.000131781
0.000127637
0.00012447
0.000122307
0.000120496
0.000118562
0.000116182
0.000113315
0.000109745
0.000105294
9.98754e-05
9.35925e-05
8.83241e-05
0.00037577
0.000368773
0.000378284
9.10212e-05
0.000101552
0.000652496
0.000752109
0.000754323
0.000728312
0.00069394
0.000658283
0.000624073
0.000592869
0.000565225
0.000541864
0.000522474
0.00050776
0.000496279
0.000488407
0.000480505
0.000469927
0.000450015
0.000424792
0.000396697
0.000373998
0.000355973
0.000340363
0.000324293
0.000305972
0.000288357
0.000308913
0.000332166
0.000357792
0.000353841
0.00042178
0.00105784
0.00120516
0.00125456
0.00124969
0.00122113
0.00118244
0.0011403
0.00109996
0.00106389
0.00103455
0.00101195
0.00099711
0.000986488
0.000979313
0.00096825
0.000947574
0.000904774
0.000848882
0.000786731
0.000731852
0.000687286
0.000651747
0.000615807
0.000575462
0.000536363
0.000511725
0.000497076
0.000480692
0.000485497
0.000580735
0.00126805
0.00148434
0.00158477
0.00161014
0.00160754
0.0015843
0.00155196
0.00151933
0.00149125
0.00147176
0.00146117
0.0014597
0.00146118
0.0014618
0.00145146
0.00142279
0.00135922
0.00127454
0.00117958
0.00109216
0.00101803
0.000956481
0.000897424
0.000833672
0.000770429
0.000720422
0.000679861
0.000624973
0.000587283
0.000634777
0.00128788
0.00154532
0.00171339
0.0018123
0.00185666
0.00186249
0.00185253
0.00184053
0.00183373
0.00183753
0.00185203
0.00187548
0.00189733
0.00191144
0.00190498
0.00187028
0.0017885
0.00167772
0.00155296
0.00143561
0.00133335
0.00124653
0.001165
0.00107948
0.000993788
0.000922827
0.000864195
0.00078345
0.000701938
0.000693028
0.00118413
0.00149944
0.00173329
0.00188559
0.00197673
0.00202845
0.00205379
0.00207365
0.00209962
0.00213867
0.0021894
0.00224729
0.00229631
0.00232765
0.00232625
0.00228662
0.00218843
0.00205401
0.00190238
0.00175807
0.00163023
0.00152013
0.00141805
0.00131315
0.00120782
0.00111831
0.00104397
0.000949272
0.000834687
0.000780073
0.00104357
0.00135729
0.00162849
0.00184423
0.0019968
0.00209858
0.00216862
0.00222944
0.00229931
0.00238518
0.00248206
0.00258236
0.00266297
0.00271284
0.00271711
0.00267275
0.00255949
0.00240344
0.00222767
0.00205923
0.00190851
0.00177758
0.00165726
0.00153557
0.00141364
0.0013077
0.0012197
0.00111735
0.000980128
0.000887068
0.000899027
0.00116394
0.00145392
0.00171512
0.00192346
0.002085
0.00220772
0.00231916
0.00243379
0.00258668
0.00273787
0.00288681
0.00300146
0.00307012
0.00307984
0.00303025
0.00290285
0.00272705
0.00252959
0.00233975
0.00216879
0.00201954
0.00188329
0.00174743
0.00161167
0.0014915
0.00139102
0.00128466
0.00113253
0.00100866
0.000791111
0.000973732
0.00124544
0.00153032
0.00178306
0.00199779
0.00217802
0.00235034
0.0025265
0.00274783
0.00296243
0.00316467
0.00331489
0.00340184
0.00341613
0.00336054
0.00321971
0.00302582
0.0028092
0.00260053
0.00241194
0.00224672
0.00209679
0.00194918
0.00180214
0.00166995
0.00155808
0.00144933
0.00128728
0.0011395
0.000734734
0.000834107
0.00104412
0.00132001
0.00159978
0.00185934
0.00209596
0.00232864
0.00257643
0.0028711
0.00316525
0.0034174
0.00360512
0.00370946
0.00372703
0.00366465
0.00351094
0.00330076
0.00306746
0.00284251
0.00263882
0.00245991
0.00229829
0.0021411
0.00198523
0.00184322
0.00172117
0.00160904
0.00144182
0.00127575
0.000739229
0.000771229
0.00089439
0.00112005
0.00139931
0.00168957
0.00197605
0.00226954
0.00258713
0.00297222
0.00335405
0.00364922
0.00387274
0.0039936
0.00401289
0.0039431
0.00377729
0.0035527
0.00330536
0.00306655
0.00285039
0.00265989
0.00248839
0.00232352
0.00216114
0.00201142
0.00188058
0.00176254
0.00159462
0.00141536
0.000810857
0.000791324
0.000834827
0.000975633
0.00121332
0.00151056
0.00183492
0.00218497
0.00257636
0.00305266
0.00351714
0.00386336
0.00411974
0.00425382
0.00427319
0.00419582
0.00401937
0.00378252
0.00352388
0.00327375
0.00304753
0.00284749
0.00266777
0.00249689
0.00232999
0.0021746
0.00203663
0.00191228
0.00174586
0.00155743
0.00095353
0.000906261
0.000884233
0.000920228
0.00108037
0.00134818
0.00169013
0.00208639
0.00255648
0.00311017
0.00365575
0.00406081
0.00434594
0.00448993
0.00450751
0.00442271
0.00423732
0.00399085
0.00372404
0.00346526
0.00323121
0.00302347
0.00283708
0.00266157
0.00249185
0.00233277
0.00218949
0.00205958
0.00189615
0.00170151
0.00115832
0.0010897
0.00102911
0.000985685
0.00102904
0.00123181
0.00156026
0.00199126
0.0025288
0.00314993
0.00377854
0.00424266
0.00455019
0.00470075
0.00471511
0.00462332
0.00443102
0.0041782
0.00390659
0.00364204
0.00340217
0.00318846
0.00299692
0.00281825
0.00264694
0.00248588
0.00233915
0.00220509
0.00204587
0.0018473
0.00141171
0.00132692
0.00123889
0.00114484
0.00108973
0.00117227
0.00146735
0.00191347
0.00249611
0.00317897
0.00388471
0.00440974
0.00473063
0.0048843
0.00489471
0.00479691
0.00460008
0.00434446
0.00407171
0.00380469
0.003561
0.00334299
0.00314787
0.00296731
0.00279576
0.00263384
0.0024855
0.00234903
0.00219513
0.00199442
0.00170836
0.00160934
0.00149835
0.0013686
0.00123964
0.00120619
0.00141157
0.0018457
0.00246318
0.00320454
0.00397153
0.0045566
0.00488403
0.00503787
0.00504431
0.00494228
0.00474419
0.0044894
0.00421865
0.00395248
0.00370797
0.00348759
0.00329027
0.00310903
0.00293826
0.00277679
0.00262828
0.00249129
0.0023437
0.00214245
0.00203949
0.00192735
0.0017957
0.00163582
0.00145586
0.00133044
0.00139122
0.00179912
0.00244018
0.00322858
0.00404317
0.00467724
0.00500631
0.00515796
0.00516123
0.00505774
0.00486209
0.00461199
0.00434665
0.00408425
0.00384175
0.00362206
0.00342418
0.00324332
0.00307434
0.00291474
0.00276713
0.00263148
0.00249111
0.00229058
0.00239278
0.00226883
0.00211881
0.00193322
0.0017159
0.00151592
0.00146236
0.00178308
0.00242907
0.00325084
0.0041044
0.00476484
0.00509209
0.00524014
0.00524175
0.00514058
0.0049514
0.00471015
0.00445386
0.00419888
0.00396121
0.00374419
0.00354831
0.00336951
0.00320325
0.0030468
0.0029015
0.0027688
0.00263642
0.00243777
0.00275201
0.0026186
0.00245357
0.00224691
0.00200026
0.00174283
0.00159759
0.00178399
0.00242827
0.00327164
0.00414627
0.00480933
0.00513464
0.00527875
0.00528084
0.00518651
0.00500822
0.00478029
0.00453743
0.00429379
0.0040633
0.00385159
0.00365979
0.00348524
0.00332306
0.00317116
0.00302978
0.00290162
0.00277815
0.00258241
0.00309721
0.00295851
0.00278371
0.00256184
0.00229218
0.0019907
0.00176795
0.00185131
0.00244553
0.00329274
0.00415359
0.004796
0.00512568
0.00526623
0.00527139
0.00518885
0.00502637
0.00481731
0.00459169
0.00436292
0.00414317
0.00393981
0.00375457
0.00358608
0.00343009
0.00328457
0.00314866
0.003027
0.00291378
0.00272211
0.00340639
0.00326806
0.00309084
0.00286136
0.00257479
0.00223985
0.00195357
0.00193945
0.00246545
0.00328789
0.00409998
0.00472585
0.00505512
0.00519207
0.00520319
0.0051371
0.00499669
0.00481111
0.00460738
0.00439742
0.00419251
0.00400105
0.00382542
0.00366521
0.00351775
0.00338048
0.00325221
0.00313985
0.0030386
0.00285301
0.00365315
0.00352487
0.00335493
0.0031268
0.00282954
0.00247129
0.00213603
0.00204192
0.00249385
0.00323296
0.00398972
0.00459849
0.00490769
0.00504144
0.00506168
0.00501601
0.00490393
0.00474637
0.00456944
0.00438321
0.00419783
0.00402237
0.00386019
0.00371196
0.00357596
0.00344946
0.00333203
0.00323193
0.00314254
0.00296804
0.00382241
0.00370614
0.00355464
0.00333628
0.003035
0.00266429
0.00229416
0.0021424
0.00249219
0.00314846
0.00383323
0.00437109
0.00466083
0.00479544
0.00482853
0.00480631
0.00472636
0.0046015
0.0044557
0.00429813
0.00413796
0.00398445
0.00384112
0.00370945
0.00358858
0.00347676
0.00337541
0.00328941
0.00321185
0.00305479
0.00391423
0.00380506
0.00366519
0.00346353
0.00316801
0.00279368
0.00240722
0.00220378
0.00241567
0.0029922
0.00356602
0.00402246
0.00429771
0.004441
0.00449087
0.00449305
0.00444599
0.00435542
0.00424272
0.00411644
0.00398596
0.00385937
0.00374084
0.00363187
0.00353191
0.00344036
0.00335871
0.00329004
0.00322649
0.0030925
0.00391751
0.00381538
0.00368426
0.00349535
0.00321264
0.00284557
0.00245496
0.00219733
0.00226353
0.00271658
0.00318743
0.00357577
0.00383979
0.00400145
0.00407364
0.00409716
0.00407872
0.00401929
0.00393668
0.00383972
0.00373771
0.00363758
0.00354462
0.00346043
0.00338386
0.00331527
0.00325621
0.00320735
0.00316143
0.00305398
0.0038266
0.00374186
0.00362354
0.00344365
0.00317605
0.00283068
0.00245493
0.00216273
0.00210836
0.00241139
0.00279895
0.00314217
0.00339735
0.0035719
0.00367056
0.00371129
0.00371175
0.00367458
0.00361205
0.00353431
0.00345076
0.0033686
0.00329452
0.00323016
0.00317087
0.00311912
0.00307674
0.00304361
0.00301204
0.00292745
0.00367936
0.00361454
0.00350936
0.00334577
0.00311196
0.00281629
0.00249443
0.0022222
0.00210841
0.00228892
0.00259464
0.00289112
0.00312689
0.00329796
0.00340705
0.00345465
0.00346377
0.00343947
0.00338937
0.00332302
0.00324934
0.00317587
0.00310889
0.00305051
0.00299897
0.0029538
0.00291516
0.00288113
0.00284241
0.00276501
0.00353334
0.00349744
0.00342146
0.00329438
0.00311536
0.0028961
0.00266318
0.0024624
0.00234865
0.00244999
0.00266554
0.00289245
0.00308131
0.0032229
0.00331542
0.00335785
0.00336908
0.00335373
0.00331649
0.00326518
0.0032069
0.00314829
0.00309444
0.00304641
0.00300344
0.00296283
0.00292231
0.00287853
0.0028218
0.00273138
0.00339033
0.003371
0.00333789
0.00326734
0.00316428
0.00303378
0.0028923
0.00276349
0.0026874
0.00273751
0.00286505
0.00300598
0.0031272
0.00322009
0.00327607
0.00330275
0.00330957
0.00329887
0.00327423
0.00324174
0.00320614
0.00317178
0.00314235
0.00311782
0.00309677
0.00307504
0.00304958
0.00301624
0.00296361
0.00288286
0.00329987
0.00330152
0.00329542
0.00326828
0.00322384
0.00315167
0.0030711
0.00300193
0.00295378
0.00296783
0.00301809
0.00307783
0.00313347
0.00317656
0.00319903
0.00320889
0.00320835
0.00319931
0.00318506
0.00317014
0.00315768
0.00314996
0.00314863
0.00315283
0.00315985
0.00316548
0.00316885
0.00316848
0.0031528
0.00311994
0.000197433
0.000210053
0.000210988
0.000208613
0.000204046
0.000198246
0.000191823
0.000185145
0.00017841
0.000171813
0.000165432
0.000159462
0.000153948
0.000149146
0.000144993
0.000141379
0.000137573
0.000133523
0.000129507
0.00012549
0.000120636
0.00011384
0.000104302
9.16828e-05
0.000368272
0.000367801
8.00709e-05
8.88308e-05
9.88419e-05
0.000109141
0.000764018
0.000932706
0.000979523
0.000969007
0.000939665
0.000905094
0.000869927
0.000835688
0.000803031
0.000772534
0.000743137
0.000715785
0.000687726
0.000660247
0.000628467
0.000591483
0.000544851
0.000504661
0.000477989
0.00046629
0.00046212
0.000452954
0.000426187
0.000378981
0.000368415
0.000419607
0.000372418
0.000298217
0.000399099
0.000499407
0.00121973
0.00150625
0.00163913
0.00168727
0.00168789
0.00166605
0.00163255
0.00159492
0.00155613
0.00151859
0.00148093
0.00144366
0.00140074
0.00135263
0.00129175
0.00121494
0.00111518
0.00102436
0.000955881
0.000912303
0.000884429
0.000858034
0.000800943
0.000705586
0.000621166
0.000607953
0.000582914
0.000481331
0.000576137
0.000740289
0.00151403
0.00191013
0.00209333
0.00219872
0.00223988
0.00224957
0.00223636
0.0022154
0.00219175
0.0021688
0.00214428
0.00211607
0.0020742
0.0020164
0.00193497
0.00182524
0.00167917
0.00154244
0.00143023
0.00134925
0.00129044
0.00123574
0.00114868
0.00101208
0.000871365
0.000815981
0.000775392
0.000658873
0.000694121
0.000856862
0.00166773
0.00207318
0.00236419
0.00253931
0.00261811
0.00267164
0.00269102
0.00270103
0.00270832
0.0027165
0.00272123
0.00271586
0.00268479
0.00262484
0.00252947
0.00239323
0.00220743
0.00202854
0.00187625
0.0017585
0.00166795
0.00158558
0.00147288
0.00130441
0.00111983
0.00102574
0.000973123
0.000849776
0.000819161
0.000946773
0.00170688
0.00210289
0.00242445
0.00266067
0.0028369
0.00295472
0.00301805
0.00307412
0.00312651
0.00318003
0.0032263
0.00325373
0.00324052
0.00318274
0.00307734
0.00291879
0.00269814
0.00248055
0.00229034
0.002138
0.00201747
0.00190967
0.00177589
0.00158365
0.00136596
0.00123687
0.00117312
0.00105355
0.000975689
0.00105574
0.0016354
0.00203641
0.00240149
0.00269803
0.00292705
0.0030995
0.00323118
0.00335285
0.00346457
0.00357707
0.00367575
0.00374292
0.0037511
0.00369774
0.00358423
0.00340578
0.00315394
0.00289977
0.0026737
0.00248925
0.00234127
0.00221088
0.00206008
0.00185163
0.00161144
0.00145025
0.00137243
0.00126219
0.00115789
0.0011976
0.00152246
0.00190407
0.00229022
0.00263167
0.00291966
0.00315858
0.0033582
0.00353781
0.00373588
0.00392067
0.00408176
0.00419413
0.00422491
0.00417583
0.00405504
0.0038574
0.00357727
0.00328791
0.00302808
0.00281433
0.00264177
0.00249179
0.00232747
0.00210901
0.00185456
0.00166804
0.00157329
0.00147146
0.00135667
0.00137032
0.00138659
0.00171699
0.00210671
0.00248716
0.00282853
0.00312996
0.00340687
0.00366977
0.00393485
0.00422173
0.00445301
0.00461336
0.00466868
0.00462124
0.00449268
0.00427598
0.00396937
0.00364629
0.0033554
0.00311545
0.00292136
0.00275464
0.00258004
0.00235603
0.00209401
0.00188922
0.0017773
0.00168043
0.00156434
0.00156062
0.00125453
0.00151756
0.00188322
0.00228552
0.00267667
0.00304266
0.00339381
0.00374582
0.00410608
0.00450095
0.00479517
0.00500434
0.00508384
0.0050377
0.00489844
0.00466291
0.00433056
0.00397613
0.00365754
0.00339489
0.00318235
0.00300167
0.00281928
0.00259325
0.00232941
0.00211231
0.00198463
0.00188941
0.00177705
0.00175813
0.00115406
0.0013439
0.00165912
0.00205716
0.00248422
0.00291221
0.00334177
0.00378328
0.00425189
0.00474989
0.00510923
0.00536563
0.00547005
0.0054262
0.00527307
0.00501858
0.00466092
0.00427876
0.00393665
0.00365506
0.00342718
0.00323515
0.00304657
0.00282137
0.0025605
0.0023359
0.00219555
0.0020991
0.0019934
0.00195993
0.0011029
0.00122888
0.00147999
0.00184142
0.00227892
0.00275818
0.00326538
0.00379977
0.0043797
0.00496649
0.00539903
0.00569969
0.00582726
0.00578493
0.00561588
0.00534214
0.00496089
0.00455589
0.00419517
0.00389859
0.00365825
0.00345713
0.00326353
0.00304131
0.00278688
0.00255933
0.00240935
0.00231013
0.00221017
0.00216608
0.00111038
0.00118581
0.00137989
0.001683
0.00209722
0.00260563
0.003182
0.00381302
0.00449615
0.00516375
0.0056621
0.00600975
0.00615294
0.00611115
0.00592465
0.00563222
0.00523107
0.0048094
0.00443566
0.00412798
0.00387798
0.0036693
0.00347178
0.00325403
0.00300851
0.00278191
0.00262499
0.00252263
0.00242678
0.00237421
0.00122566
0.00125518
0.00136309
0.00160118
0.00198041
0.0024827
0.00310989
0.00383324
0.00460199
0.00533201
0.0059038
0.00629225
0.0064412
0.00639985
0.00619664
0.00588683
0.0054723
0.00504132
0.00466034
0.00434545
0.00408853
0.00387317
0.00367272
0.00346037
0.00322535
0.00300284
0.00284091
0.00273616
0.0026427
0.00258252
0.00145048
0.00144902
0.00149845
0.00161881
0.00191324
0.00240229
0.00306047
0.00384882
0.00468595
0.00546773
0.00611935
0.00653286
0.00668566
0.00664469
0.00642796
0.00610441
0.00568479
0.00525286
0.00487072
0.00455249
0.00429096
0.00407011
0.00386757
0.00366024
0.00343673
0.00322062
0.00305666
0.00295
0.00285712
0.00278987
0.00178769
0.00176278
0.00176468
0.00179758
0.00194318
0.00235292
0.00301291
0.00384832
0.00475086
0.00558548
0.00631169
0.00672443
0.00688042
0.00683809
0.00661323
0.00628296
0.00586792
0.00544378
0.00506693
0.00474933
0.00448522
0.00426056
0.0040569
0.00385351
0.00364031
0.00343237
0.00327072
0.00316273
0.00306848
0.00299394
0.00221535
0.00216965
0.00212803
0.00209181
0.00211263
0.00236003
0.00298864
0.00385421
0.00480957
0.0056978
0.00646727
0.00686357
0.00701743
0.00697163
0.00674627
0.00641945
0.00601937
0.0056118
0.00524687
0.00493393
0.00466984
0.0044435
0.0042401
0.00404159
0.00383796
0.00364026
0.00348219
0.00337218
0.00327473
0.00319148
0.00269406
0.00262383
0.0025445
0.0024474
0.0023816
0.00248235
0.00299673
0.00386829
0.00485782
0.00579623
0.00654974
0.00693557
0.00708564
0.00703698
0.00681987
0.00650912
0.00613415
0.00575179
0.00540518
0.00510169
0.00484078
0.00461561
0.0044143
0.0042216
0.0040281
0.0038416
0.00368765
0.00357448
0.00347214
0.00337843
0.00317905
0.00308276
0.00296663
0.00281946
0.00268037
0.00266555
0.00303947
0.00388226
0.0048859
0.00583578
0.00653029
0.00692668
0.00707322
0.00702572
0.00682542
0.00654467
0.00620405
0.00585478
0.00553228
0.00524387
0.00499113
0.0047704
0.00457317
0.00438759
0.00420486
0.00402935
0.00388035
0.00376315
0.00365473
0.0035492
0.00362858
0.00350676
0.00335805
0.00317088
0.00297613
0.00288622
0.00312211
0.00388815
0.00487487
0.00576188
0.0064317
0.00682518
0.00696844
0.00692876
0.0067545
0.00651578
0.00621714
0.00590703
0.00561449
0.00534661
0.00510738
0.00489588
0.00470635
0.00452966
0.00435811
0.00419382
0.00404985
0.00392845
0.00381387
0.00369607
0.00401163
0.00386586
0.0036905
0.00347388
0.00323781
0.00307971
0.00318485
0.00386057
0.00474798
0.00558768
0.00625039
0.0066178
0.00676126
0.00673866
0.00659926
0.00640982
0.00615906
0.005892
0.00563319
0.00539062
0.00517037
0.00497315
0.00479536
0.00463033
0.00447151
0.00431895
0.00418101
0.00405679
0.00393779
0.00380917
0.00430642
0.0041425
0.00394867
0.0037106
0.00344305
0.00322652
0.00322916
0.00380821
0.00457487
0.00535085
0.0059496
0.00629361
0.00644763
0.00645354
0.00635558
0.00621731
0.00601658
0.00579285
0.00556934
0.00535452
0.00515604
0.00497674
0.00481519
0.0046658
0.00452264
0.00438413
0.00425464
0.00413132
0.00401169
0.00387631
0.00450124
0.0043276
0.00412307
0.00387058
0.00357949
0.00331522
0.00323554
0.00363513
0.00433611
0.00500493
0.0055292
0.00586039
0.00603708
0.00608498
0.00603097
0.00594045
0.00578741
0.00560401
0.00541332
0.00522636
0.00505188
0.00489314
0.00475007
0.00461838
0.00449274
0.00437026
0.00425119
0.0041349
0.00401976
0.00388363
0.0045909
0.0044179
0.00421071
0.00395281
0.00364754
0.00334589
0.0031878
0.00337446
0.003967
0.00455163
0.00503015
0.00536251
0.00556781
0.00566476
0.00565757
0.00560721
0.00549558
0.00534799
0.00518769
0.00502598
0.00487241
0.0047314
0.00460422
0.00448793
0.00437781
0.00427029
0.00416423
0.00405888
0.00395191
0.00381944
0.00458199
0.00442161
0.00422407
0.00397303
0.00366767
0.00334544
0.00311658
0.00313147
0.00355413
0.00407805
0.00453655
0.00488075
0.00511422
0.00525317
0.00529207
0.00527199
0.00519325
0.00507517
0.0049401
0.00479889
0.00466144
0.00453307
0.00441624
0.00430953
0.0042091
0.00411152
0.0040152
0.00391891
0.00381874
0.00368982
0.00450403
0.00436862
0.00419645
0.00396895
0.00368503
0.0033721
0.0031117
0.00301662
0.00327946
0.0037252
0.00415817
0.0045051
0.00475626
0.00491939
0.00499154
0.00498912
0.00493141
0.00483547
0.00472072
0.0045967
0.00447311
0.00435564
0.00424704
0.004147
0.00405232
0.00395976
0.00386759
0.00377446
0.00367468
0.00354361
0.00441582
0.004316
0.00417888
0.00399139
0.0037527
0.00348418
0.00324585
0.00310467
0.00324861
0.00359485
0.00397289
0.0042927
0.0045343
0.00469509
0.00477534
0.00477501
0.00472676