/*--------------------------------*- C++ -*----------------------------------*\
| =========                 |                                                 |
| \\      /  F ield         | OpenFOAM: The Open Source CFD Toolbox           |
|  \\    /   O peration     | Version:  5.0                                   |
|   \\  /    A nd           | Web:      www.OpenFOAM.org                      |
|    \\/     M anipulation  |                                                 |
\*---------------------------------------------------------------------------*/
FoamFile
{
    version     2.0;
    format      ascii;
    class       volScalarField;
    location    "1100/air";
    object      epsilon;
}
// * * * * * * * * * * * * * * * * * * * * * * * * * * * * * * * * * * * * * //

dimensions      [0 2 -3 0 0 0 0];

internalField   nonuniform List<scalar> 
243000
(
1.96128
2.72486
3.16353
3.48736
3.69778
3.80834
3.83351
3.78482
3.67005
3.49895
3.27927
3.02938
2.76804
2.52972
2.33743
2.21312
2.13417
2.06452
1.96807
1.83847
1.68065
1.50684
1.32989
1.1601
1.00596
0.864874
0.173528
0.150475
0.550629
0.569455
1.05294
1.37862
1.5164
1.5889
1.60939
1.5949
1.55511
1.49664
1.42426
1.34252
1.25526
1.16959
1.09015
1.02677
0.983218
0.96287
0.948985
0.926408
0.883643
0.826652
0.760306
0.689812
0.618537
0.549374
0.486435
0.432384
0.371133
0.290404
0.219859
0.244898
1.24935
1.68117
1.86996
1.98091
2.02119
2.01414
1.9735
1.90855
1.82631
1.73393
1.63716
1.54513
1.46329
1.40366
1.36922
1.36141
1.353
1.32294
1.25841
1.17136
1.07176
0.967631
0.863509
0.762665
0.669384
0.587444
0.507094
0.410013
0.313164
0.267561
1.17709
1.70294
1.99593
2.17222
2.25191
2.27384
2.25145
2.19799
2.12331
2.0373
1.94766
1.86534
1.79653
1.75505
1.74241
1.75673
1.75976
1.7257
1.64124
1.52448
1.39107
1.2525
1.11486
0.981862
0.85757
0.746217
0.642226
0.530914
0.417731
0.341428
0.972998
1.52855
1.90731
2.16018
2.30955
2.38305
2.39754
2.37247
2.32139
2.25725
2.18997
2.13211
2.09027
2.07951
2.09931
2.14256
2.16062
2.12473
2.02245
1.87765
1.71152
1.53933
1.36888
1.2044
1.04984
0.909586
0.780079
0.652738
0.526029
0.427162
0.799831
1.28351
1.67434
1.99949
2.21987
2.35638
2.42397
2.44337
2.43038
2.4019
2.3703
2.34994
2.34719
2.37829
2.43895
2.51571
2.55081
2.51457
2.39613
2.22532
2.02846
1.82437
1.62265
1.42806
1.24456
1.07669
0.922197
0.776118
0.635419
0.516657
0.659501
1.0446
1.42632
1.7539
2.02068
2.21936
2.34865
2.42368
2.46104
2.48037
2.49599
2.52442
2.5717
2.65382
2.7617
2.87487
2.92791
2.89208
2.75916
2.56441
2.33902
2.10515
1.87421
1.65127
1.44046
1.2465
1.0681
0.901576
0.745936
0.609409
0.620144
0.822851
1.17998
1.51471
1.79549
2.01322
2.19657
2.33004
2.42511
2.50128
2.57478
2.66172
2.76817
2.90881
3.06852
3.2196
3.29069
3.25555
3.1096
2.89309
2.6414
2.38004
2.12199
1.87282
1.63658
1.41824
1.2172
1.02945
0.858112
0.705616
0.718621
0.713403
0.952113
1.27382
1.57147
1.81376
2.01525
2.18567
2.33686
2.47529
2.61456
2.76741
2.94078
3.14623
3.36041
3.54982
3.63848
3.60399
3.44631
3.21011
2.93435
2.64765
2.3648
2.09168
1.8322
1.59126
1.36883
1.15967
0.972217
0.805043
0.87154
0.79172
0.814186
1.04937
1.34524
1.61217
1.83863
2.03092
2.21403
2.41159
2.61959
2.84622
3.09342
3.36843
3.63835
3.86559
3.9708
3.93695
3.76862
3.51469
3.2171
2.90727
2.60173
2.30695
2.02653
1.76482
1.5223
1.29256
1.08856
0.907154
1.05501
0.964276
0.854361
0.902262
1.13273
1.40774
1.66093
1.88055
2.08548
2.32169
2.59877
2.90416
3.22975
3.57725
3.90321
4.16686
4.28724
4.25391
4.0762
3.80636
3.48931
3.15847
2.83224
2.51772
2.21854
1.93803
1.67682
1.42859
1.20738
1.01158
1.26239
1.17622
1.04231
0.910634
0.98254
1.21394
1.48206
1.73086
1.96332
2.21839
2.5593
2.94716
3.35323
3.77451
4.15545
4.4534
4.58731
4.55441
4.36859
4.08477
3.75053
3.40095
3.05597
2.72353
2.40739
2.11007
1.83172
1.56639
1.3285
1.11803
1.49344
1.4119
1.27576
1.09736
0.961538
1.06629
1.31115
1.58179
1.84467
2.12615
2.50818
2.97712
3.46643
3.9614
4.39511
4.72468
4.87042
4.83784
4.64533
4.34947
4.00037
3.63439
3.27272
2.92423
2.59294
2.28054
1.98659
1.70543
1.45093
1.22598
1.74956
1.6677
1.5299
1.33518
1.10201
1.01366
1.16992
1.43835
1.72883
2.04201
2.45097
2.99814
3.5713
4.13851
4.62183
4.97989
5.13582
5.10358
4.90577
4.60005
4.23847
3.8585
3.48241
3.12
2.77546
2.44958
2.14146
1.84584
1.5749
1.33558
2.03273
1.94457
1.80009
1.59487
1.33353
1.0829
1.08776
1.31108
1.61799
1.96407
2.39656
3.0138
3.66907
4.30568
4.83476
5.21794
5.38266
5.35084
5.14918
4.83599
4.46449
4.07311
3.68507
3.31094
2.95505
2.61732
2.29634
1.98688
1.70017
1.44718
2.34494
2.24441
2.0874
1.86858
1.58557
1.25363
1.08647
1.21491
1.51639
1.89168
2.35295
3.02698
3.76031
4.46213
5.03259
5.43756
5.60988
5.57876
5.37477
5.05653
4.6779
4.278
3.88057
3.49709
3.13171
2.78374
2.45096
2.12885
1.82716
1.56097
2.68771
2.56883
2.39356
2.15625
1.85259
1.49205
1.17894
1.16617
1.43061
1.82583
2.31805
3.03883
3.84477
4.60631
5.21354
5.63725
5.81626
5.78643
5.58161
5.26069
4.87805
4.47283
4.06886
3.67832
3.30535
2.94867
2.60581
2.27213
1.95612
1.67719
3.06238
2.91905
2.72
2.45925
2.13173
1.74219
1.33952
1.17135
1.36584
1.768
2.29049
3.04912
3.92193
4.73615
5.37539
5.81511
6.00038
5.97281
5.76858
5.44799
5.06453
4.6571
4.24957
3.85449
3.47607
3.11258
2.76116
2.41699
2.08733
1.79633
3.46946
3.29578
3.06767
2.77864
2.42287
2.00187
1.54321
1.23656
1.32827
1.72015
2.26931
3.05692
3.98832
4.84877
5.51546
5.96905
6.16055
6.13659
5.93557
5.61856
5.23711
4.83047
4.42235
4.02541
3.64384
3.27566
2.9173
2.56402
2.22121
1.91852
3.9107
3.70011
3.43755
3.11546
2.72731
2.27411
1.77268
1.35356
1.31938
1.68422
2.2535
3.06019
4.04143
4.9412
5.631
6.09694
6.29515
6.27704
6.08276
5.77225
5.39561
4.99269
4.58708
4.19106
3.80874
3.43824
3.07509
2.71425
2.35852
2.04437
4.38739
4.134
3.83145
3.47148
3.0475
2.56712
2.0202
1.50843
1.34809
1.66219
2.24224
3.05703
4.07794
5.01038
5.71896
6.19628
6.40304
6.39333
6.2092
5.90858
5.54002
5.1439
4.74389
4.35173
3.97135
3.60097
3.23549
2.86905
2.50045
2.17482
4.91135
4.60493
4.25458
3.85107
3.38919
2.87648
2.27985
1.69023
1.40963
1.65453
2.23574
3.04976
4.09293
5.05306
5.77532
6.26353
6.48151
6.48367
6.31347
6.02673
5.67015
5.28429
4.89322
4.50813
4.13266
3.765
3.39999
3.03086
2.65176
2.31259
5.48018
5.12632
4.71813
4.2665
3.78144
3.20915
2.55238
1.8908
1.49927
1.66297
2.23553
3.047
4.08226
5.05457
5.79262
6.29214
6.52466
6.54329
6.3919
6.12404
5.78442
5.41321
5.03518
4.66104
4.29395
3.93208
3.57055
3.20176
2.8166
2.46053
6.06634
5.6887
5.25882
4.76786
4.20708
3.56132
2.83749
2.10546
1.61274
1.69064
2.24488
3.04952
4.04774
5.01566
5.75923
6.26903
6.51938
6.56023
6.43417
6.19239
5.87616
5.52583
5.16689
4.80935
4.45561
4.10379
3.74907
3.38319
2.99423
2.62023
6.66743
6.29908
5.846
5.27551
4.63683
3.92482
3.13747
2.33706
1.75241
1.74333
2.27122
3.06753
4.01647
4.93189
5.66357
6.17718
6.44476
6.51329
6.41906
6.20905
5.92602
5.60686
5.27541
4.94191
4.60956
4.27526
3.933
3.57336
3.18233
2.79206
7.2122
6.81181
6.31714
5.72015
5.05837
4.30929
3.47239
2.60876
1.93832
1.84312
2.34764
3.14149
4.05217
4.91776
5.61429
6.10768
6.38428
6.47658
6.41543
6.24045
5.98765
5.68934
5.37019
5.04413
4.7363
4.42797
4.10641
3.75974
3.37135
2.97971
7.6148
7.2092
6.74773
6.19783
5.54823
4.78762
3.91956
3.00417
2.25703
2.0754
2.57011
3.37871
4.27601
5.1118
5.78372
6.26097
6.53899
6.64567
6.60958
6.4589
6.22673
5.94258
5.63013
5.30519
4.9863
4.66815
4.34177
3.99879
3.62599
3.2331
8.37226
7.95556
7.49173
6.95776
6.3325
5.59604
4.74337
3.82362
3.03384
2.78376
3.28972
4.14737
5.06352
5.89093
6.54225
6.99419
7.25307
7.35461
7.31982
7.17114
6.93858
6.64924
6.32568
5.98358
5.63842
5.29073
4.93482
4.56412
4.16574
3.73309
10.0289
9.6587
9.27778
8.86651
8.39687
7.83375
7.15659
6.39538
5.71927
5.49049
6.02793
6.93223
7.84727
8.63207
9.21283
9.58269
9.76734
9.81195
9.72923
9.54115
9.27286
8.94527
8.57871
8.18576
7.7805
7.3557
6.90469
6.43432
5.94116
5.40479
17.4351
17.4418
17.4686
17.4681
17.4047
17.2314
16.9513
16.6076
16.3257
16.173
16.3558
16.7898
17.2419
17.6161
17.8244
17.952
17.9755
17.9608
17.8946
17.8109
17.7086
17.5928
17.4669
17.3364
17.1913
16.9191
16.4712
15.9775
15.5349
15.0154
3.70021
5.19969
6.19161
6.92137
7.4227
7.73141
7.87171
7.86322
7.71977
7.46432
7.11794
6.72238
6.30584
5.92266
5.58711
5.30183
4.98406
4.58983
4.10731
3.56824
2.99285
2.40912
1.85192
1.35818
1.0113
0.200146
0.170401
0.149748
0.652399
0.765862
2.8387
3.37712
3.80683
4.1103
4.29698
4.39014
4.40527
4.35422
4.24825
4.09956
3.92178
3.73251
3.54636
3.38018
3.2405
3.11585
2.95939
2.74696
2.47957
2.20163
1.89543
1.57458
1.25235
0.946717
0.690388
0.467871
0.365605
0.368164
0.474507
0.362279
2.7082
3.11797
3.44313
3.66111
3.78399
3.83443
3.82675
3.77038
3.67657
3.55606
3.42001
3.28276
3.15402
3.04545
2.95786
2.87704
2.75746
2.5819
2.35569
2.11579
1.85153
1.56716
1.27881
0.997574
0.745328
0.557567
0.445249
0.407069
0.452791
0.402761
2.58796
2.96268
3.27437
3.46635
3.56719
3.60413
3.5924
3.54235
3.46506
3.37047
3.26781
3.16937
3.08134
3.01375
2.9626
2.91071
2.81124
2.65024
2.43618
2.20323
1.9482
1.67459
1.3926
1.11248
0.852439
0.65176
0.522852
0.451423
0.438824
0.395486
2.27469
2.72341
3.06415
3.27063
3.37392
3.41207
3.40757
3.3723
3.31822
3.25458
3.18866
3.1304
3.08386
3.05537
3.03739
3.0109
2.92756
2.7761
2.56687
2.3337
2.07819
1.80505
1.52216
1.23888
0.970735
0.75444
0.607943
0.512598
0.461192
0.41386
1.7242
2.29622
2.72602
2.99217
3.13018
3.19003
3.20409
3.1932
3.16999
3.14388
3.12037
3.10672
3.10393
3.11583
3.13098
3.12848
3.06042
2.91718
2.71081
2.47555
2.21643
1.94001
1.65355
1.36587
1.09081
0.860847
0.698403
0.585195
0.51037
0.455836
1.18445
1.78134
2.25038
2.60303
2.814
2.91896
2.96528
2.98857
3.00445
3.02258
3.04716
3.08208
3.12587
3.1799
3.22839
3.24889
3.19589
3.06093
2.85728
2.61968
2.35596
2.07492
1.78387
1.49112
1.21017
0.969062
0.791425
0.663823
0.574856
0.512211
0.833834
1.28339
1.77112
2.17954
2.45005
2.60471
2.6955
2.75917
2.82035
2.88885
2.96615
3.05326
3.14623
3.2429
3.3243
3.36706
3.32907
3.20305
3.00262
2.76291
2.49443
2.20843
1.91253
1.61462
1.32824
1.07797
0.8866
0.74567
0.646776
0.577342
0.67589
0.912829
1.33424
1.76244
2.08156
2.29025
2.41368
2.51609
2.6239
2.74632
2.87932
3.02181
3.16503
3.30407
3.41725
3.48142
3.45833
3.34187
3.14545
2.90396
2.63092
2.33993
2.03936
1.73664
1.44506
1.18703
0.983518
0.829758
0.721554
0.646659
0.647181
0.733244
0.991604
1.37699
1.72573
1.98146
2.15102
2.28055
2.42542
2.60066
2.79028
2.99126
3.1836
3.36392
3.50736
3.59187
3.58339
3.47676
3.28498
3.042
2.7648
2.46899
2.16396
1.85704
1.56085
1.2962
1.08205
0.916356
0.798435
0.718137
0.706028
0.717317
0.808815
1.06493
1.39711
1.68754
1.90158
2.06827
2.23817
2.45877
2.70426
2.96385
3.20355
3.42343
3.59531
3.69903
3.70454
3.60762
3.42065
3.17587
2.89539
2.59511
2.28603
1.97556
1.67577
1.40565
1.18221
1.00594
0.878131
0.792731
0.824731
0.811016
0.805123
0.891757
1.12885
1.41883
1.66981
1.87533
2.07626
2.32692
2.62683
2.94075
3.22625
3.48374
3.68209
3.80403
3.8223
3.73465
3.5521
3.30501
3.02202
2.71792
2.40538
2.09219
1.78995
1.51551
1.28419
1.09854
0.961574
0.871596
1.00116
0.984642
0.943246
0.900846
0.976806
1.19922
1.46139
1.70034
1.93561
2.21204
2.56286
2.92387
3.25318
3.54609
3.76903
3.90806
3.93772
3.85819
3.67909
3.42957
3.14434
2.83713
2.52198
2.20716
1.90367
1.62598
1.38827
1.19453
1.04957
0.955666
1.21758
1.19375
1.1468
1.04781
0.975517
1.06733
1.28927
1.54702
1.81348
2.12307
2.51072
2.91403
3.28562
3.6119
3.8578
4.01274
4.05215
3.97899
3.80175
3.55027
3.26233
2.95264
2.63591
2.32062
2.01726
1.73759
1.49488
1.29433
1.14275
1.04563
1.46161
1.42838
1.37551
1.26284
1.10972
1.04039
1.17247
1.41997
1.71249
2.05452
2.47037
2.91111
3.32473
3.68292
3.95064
4.12026
4.16749
4.09832
3.92115
3.66731
3.37634
3.06456
2.74751
2.43305
2.13094
1.85088
1.60444
1.39839
1.24163
1.14196
1.7331
1.68697
1.62553
1.50559
1.31285
1.13091
1.12301
1.32794
1.63334
2.00179
2.44184
2.91902
3.37242
3.76165
4.05066
4.23371
4.28666
4.21864
4.03918
3.78176
3.48722
3.17435
2.85772
2.54531
2.24542
1.9662
1.71739
1.50717
1.34661
1.24511
2.03243
1.97098
1.89771
1.76762
1.55611
1.30238
1.1533
1.2737
1.57321
1.9639
2.42502
2.93885
3.43117
3.85176
4.16241
4.35779
4.41412
4.34398
4.15915
3.89573
3.59792
3.28433
2.96834
2.65864
2.36181
2.08425
1.83452
1.62141
1.45826
1.35554
2.36347
2.28527
2.19726
2.05373
1.82675
1.52508
1.26304
1.2567
1.53355
1.9402
2.42014
2.97223
3.50524
3.95917
4.29294
4.49977
4.55703
4.48121
4.28661
4.0162
3.71453
3.39822
3.08253
2.77558
2.48216
2.20688
1.95725
1.74237
1.57751
1.4741
2.73277
2.6373
2.53229
2.37128
2.12508
1.78376
1.43006
1.29135
1.51604
1.93053
2.43418
3.0262
3.60234
4.09368
4.45367
4.6717
4.72736
4.64144
4.43559
4.15613
3.84436
3.52314
3.20608
2.90079
2.61034
2.33743
2.08832
1.87244
1.70625
1.60239
3.15013
3.03773
2.91406
2.73155
2.46101
2.07869
1.6449
1.38301
1.52409
1.94046
2.4768
3.11482
3.73654
4.27249
4.6642
4.89432
4.94532
4.84844
4.62777
4.33078
4.00284
3.672
3.34974
3.04312
2.75373
2.4821
2.23299
2.01629
1.84836
1.74364
3.63005
3.50198
3.35874
3.15266
2.85375
2.42342
1.90943
1.53452
1.57966
1.98899
2.5717
3.25381
3.93427
4.52746
4.9604
5.2055
5.25229
5.13776
4.89329
4.5709
4.21825
3.86895
3.53372
3.21948
2.92637
2.65265
2.40116
2.1829
2.01173
1.90455
4.19713
4.05476
3.89347
3.66598
3.3349
2.84542
2.24148
1.75091
1.69224
2.10675
2.74318
3.48835
4.24977
4.92147
5.41218
5.67836
5.72081
5.58014
5.2996
4.93745
4.54466
4.16057
3.79752
3.46289
3.15564
2.87134
2.61192
2.39005
2.21298
2.09888
4.89411
4.74145
4.56918
4.33552
3.96144
3.3999
2.68974
2.06907
1.90237
2.33119
3.05898
3.92173
4.80075
5.58732
6.16584
6.46528
6.50642
6.32678
5.98958
5.56079
5.09709
4.64629
4.22617
3.84478
3.50064
3.1886
2.9119
2.67655
2.48532
2.35393
5.81409
5.65796
5.49678
5.24836
4.83412
4.19849
3.36907
2.59687
2.31715
2.78618
3.68248
4.76701
5.86236
6.82795
7.55249
7.91075
7.95755
7.72515
7.29612
6.74989
6.16213
5.58387
5.04532
4.55931
4.12709
3.74533
3.41402
3.13474
2.9015
2.72831
7.17543
7.04437
6.88175
6.62414
6.18795
5.49862
4.55982
3.62533
3.23116
3.81275
5.02195
6.52104
8.03364
9.35954
10.3659
10.844
10.8987
10.5711
9.96803
9.19983
8.36785
7.53494
6.75181
6.04093
5.40789
4.85399
4.37915
3.97503
3.63151
3.35596
9.52201
9.40172
9.25531
9.02135
8.61245
7.94117
6.97875
5.95542
5.50789
6.35316
8.14
10.3851
12.6264
14.5703
16.0507
16.7404
16.8005
16.3149
15.4095
14.241
12.951
11.6405
10.393
9.23961
8.18904
7.25384
6.43571
5.72772
5.10817
4.57491
14.0152
13.9405
13.8623
13.7366
13.5056
13.0699
12.3748
11.6192
11.4442
12.8422
15.5523
18.9331
22.2264
25.0251
27.0924
28.0436
28.1148
27.4196
26.0968
24.3324
22.3245
20.2412
18.1969
16.2428
14.417
12.7276
11.181
9.77694
8.48282
7.31747
23.1817
23.1589
23.2588
23.433
23.6493
23.7974
23.851
24.0702
24.9948
27.342
31.0917
35.588
39.8015
43.2629
45.6594
46.7545
46.8827
46.0803
44.4557
42.1878
39.4862
36.5592
33.5636
30.5503
27.6096
24.7348
21.9291
19.2192
16.5844
14.1046
36.9508
37.1041
37.8171
38.6896
39.6005
40.4368
41.3815
42.7068
45.1442
48.6452
52.948
57.4694
61.415
64.5258
66.2862
66.9175
66.961
66.1869
64.6589
62.4973
59.8299
56.7922
53.5808
50.1924
46.7908
43.2897
39.6592
35.9246
32.0587
28.2717
41.4776
41.9142
43.2609
44.5749
45.3269
45.5573
45.8694
46.9575
49.523
53.4263
57.3408
60.7252
63.3577
65.247
65.6647
65.1466
64.6561
63.6139
62.1166
60.2835
58.2133
55.9592
53.6719
51.5557
49.5118
47.4856
45.4769
43.5196
41.5425
39.6535
5.55597
7.7974
9.17529
10.2499
11.0211
11.5334
11.8227
11.9138
11.8189
11.5611
11.1546
10.6464
10.0565
9.44805
8.82327
8.17395
7.39705
6.53117
5.66111
4.81709
3.94552
3.01571
2.08306
1.25105
0.224004
0.197501
0.738932
0.687225
0.823711
0.951555
3.69674
4.51298
5.10779
5.55288
5.84394
6.00998
6.07461
6.05418
5.95972
5.80341
5.5988
5.36061
5.10583
4.84597
4.59041
4.31077
3.9714
3.60073
3.26099
2.93709
2.55839
2.09533
1.5635
1.02316
0.55604
0.3411
0.342213
0.439019
0.468243
0.4342
3.42136
4.13714
4.67143
5.03728
5.25772
5.36086
5.37096
5.30512
5.18015
5.01114
4.81341
4.60195
4.39154
4.19107
4.00087
3.79264
3.53116
3.2486
2.99564
2.76106
2.47429
2.08779
1.62694
1.13269
0.683356
0.447781
0.359303
0.387577
0.430888
0.44571
3.26276
3.95916
4.51255
4.89267
5.10986
5.20039
5.19429
5.11195
4.97584
4.8043
4.61415
4.42085
4.23763
4.07183
3.91791
3.74448
3.51428
3.26016
3.03371
2.82162
2.56143
2.20831
1.77053
1.28583
0.824659
0.546389
0.413207
0.381257
0.395732
0.417232
3.09042
3.76796
4.35004
4.75831
4.98744
5.0824
5.07699
4.9952
4.8644
4.70524
4.53488
4.3683
4.21814
4.08661
3.96373
3.81673
3.60819
3.37215
3.15596
2.94818
2.69405
2.35286
1.9246
1.4428
0.971234
0.652509
0.481332
0.404231
0.389017
0.4166
2.80217
3.50358
4.11484
4.54643
4.79786
4.90894
4.91728
4.85202
4.74294
4.61206
4.47593
4.34681
4.23583
4.14143
4.04936
3.92679
3.73794
3.51732
3.30884
3.0992
2.84245
2.50351
2.07886
1.59769
1.11881
0.766033
0.561714
0.44964
0.409696
0.436029
2.31751
3.03779
3.71455
4.209
4.49978
4.64545
4.68507
4.65482
4.58464
4.49769
4.40936
4.32815
4.26269
4.20809
4.14754
4.04948
3.8813
3.67787
3.47625
3.2624
2.99844
2.65637
2.23185
1.74951
1.26491
0.885858
0.652885
0.511253
0.450885
0.474833
1.78309
2.4446
3.14958
3.70122
4.06775
4.28284
4.3757
4.39896
4.38612
4.35808
4.3293
4.30543
4.29039
4.27772
4.24899
4.17665
4.03128
3.8476
3.65267
3.43337
3.15932
2.81055
2.38366
1.89955
1.41054
1.01033
0.751653
0.584771
0.505749
0.526344
1.33988
1.85474
2.52127
3.11807
3.5491
3.82707
3.99723
4.09327
4.15302
4.19766
4.23849
4.27821
4.31702
4.34864
4.35183
4.30668
4.18671
4.02473
3.83623
3.61021
3.32387
2.96569
2.53465
2.04913
1.55662
1.13948
0.856657
0.667649
0.570222
0.583623
1.02805
1.3729
1.9238
2.51276
3.00023
3.34448
3.57924
3.75199
3.89761
4.02506
4.14228
4.2502
4.34462
4.42127
4.4575
4.44092
4.34884
4.209
4.02623
3.79177
3.49118
3.1216
2.68518
2.1987
1.70377
1.27372
0.968817
0.759152
0.643296
0.646416
0.842467
1.04475
1.43425
1.9522
2.459
2.86168
3.16319
3.4047
3.63324
3.84973
4.04692
4.22767
4.37699
4.49818
4.5684
4.58218
4.52024
4.4015
4.2222
3.97706
3.6605
3.27777
2.83549
2.34841
1.8527
1.4133
1.0884
0.85956
0.725709
0.715681
0.763048
0.872914
1.11393
1.5005
1.96716
2.40418
2.76692
3.07668
3.37445
3.68101
3.96025
4.21179
4.41748
4.58357
4.68843
4.73482
4.70375
4.60379
4.42446
4.16545
3.83112
3.43412
2.9858
2.4985
2.00368
1.55791
1.21586
0.969478
0.818463
0.793299
0.757049
0.824469
0.968112
1.20921
1.57488
2.00151
2.40752
2.77953
3.14491
3.52686
3.89158
4.20465
4.47028
4.68217
4.8232
4.90423
4.90293
4.8175
4.63329
4.35669
4.00274
3.59107
3.13665
2.6494
2.15697
1.70779
1.35191
1.08971
0.922367
0.88118
0.826626
0.872285
0.949484
1.09111
1.32643
1.68636
2.10213
2.52252
2.9485
3.39653
3.84086
4.21307
4.54092
4.80023
4.9798
5.09737
5.12195
5.04522
4.84977
4.5516
4.17593
3.74977
3.28922
2.80233
2.31348
1.86346
1.49737
1.22109
1.03835
0.980737
0.958704
0.995026
1.043
1.09513
1.22667
1.48373
1.86606
2.31214
2.79351
3.2992
3.80821
4.24781
4.63631
4.94593
5.16742
5.32246
5.36733
5.2913
5.07717
4.75298
4.35356
3.91249
3.44575
2.96011
2.4754
2.02642
1.65265
1.36446
1.16742
1.09294
1.15502
1.18142
1.21415
1.22136
1.24136
1.39346
1.70916
2.15855
2.67808
3.22985
3.79495
4.31442
4.76508
5.13024
5.39832
5.5905
5.64891
5.56355
5.32241
4.967
4.54142
4.08395
3.61031
3.12682
2.64709
2.19993
1.81932
1.52111
1.31076
1.21897
1.42209
1.42995
1.4467
1.4241
1.37498
1.39098
1.62337
2.05049
2.59467
3.18845
3.80998
4.41775
4.93931
5.3686
5.68957
5.91738
5.9813
5.8754
5.59824
5.20547
4.74977
4.27279
3.79023
3.30692
2.83166
2.38558
2.00019
1.69331
1.4701
1.36031
1.76951
1.74863
1.74063
1.68952
1.58713
1.50113
1.60138
1.98643
2.54367
3.17509
3.8732
4.57358
5.17759
5.6836
6.06606
6.32737
6.38851
6.25
5.92694
5.48858
4.99651
4.49477
3.99882
3.51164
3.03728
2.59038
2.20153
1.88549
1.64849
1.51924
2.21161
2.15128
2.10837
2.01996
1.86572
1.69508
1.66874
1.96666
2.52571
3.21275
4.00889
4.80551
5.50911
6.11002
6.56611
6.85947
6.91016
6.72676
6.34637
5.85141
5.31277
4.77777
4.25984
3.76081
3.28047
2.82908
2.43448
2.10583
1.85156
1.69974
2.76914
2.65985
2.56978
2.43089
2.21785
1.96341
1.81977
2.01749
2.5693
3.34292
4.23525
5.15193
5.9819
6.70419
7.25207
7.57892
7.61328
7.3732
6.92184
6.35564
5.75672
5.17124
4.61622
4.09112
3.59267
3.12956
2.71916
2.3689
2.08962
1.90892
3.47186
3.30134
3.15032
2.95299
2.67214
2.32797
2.07444
2.17109
2.73512
3.59622
4.61303
5.68234
6.67914
7.56214
8.23095
8.59914
8.61473
8.30749
7.76863
7.11299
6.43105
5.76874
5.15282
4.57709
4.03726
3.5372
3.09002
2.70047
2.38162
2.16033
4.35866
4.11792
3.9013
3.64175
3.28537
2.84151
2.47306
2.45758
3.04839
4.03734
5.24214
6.52686
7.752
8.85511
9.69451
10.1237
10.1238
9.74337
9.09764
8.33077
7.53693
6.75759
6.02365
5.34118
4.70848
4.1276
3.60689
3.14726
2.76348
2.48063
5.50748
5.19639
4.91787
4.59691
4.16346
3.61311
3.11608
2.99453
3.63026
4.82262
6.32088
7.93912
9.48972
10.8995
11.9969
12.5249
12.5245
12.0766
11.3117
10.3778
9.38371
8.39347
7.45145
6.57509
5.76878
5.03491
4.37655
3.79704
3.30523
2.92351
7.07823
6.70658
6.38243
6.01522
5.52199
4.87635
4.2519
4.03103
4.76559
6.27843
8.23479
10.3723
12.439
14.2971
15.7893
16.4756
16.5069
15.9483
14.9732
13.7555
12.4321
11.0953
9.81117
8.61083
7.507
6.50624
5.61322
4.82833
4.15234
3.60388
9.40386
9.00916
8.67493
8.30985
7.81067
7.12753
6.43098
6.16074
7.08929
9.10201
11.7536
14.6624
17.4683
19.9429
21.9522
22.8374
22.8821
22.1731
20.9076
19.286
17.4856
15.6322
13.82
12.1049
10.5156
9.06828
7.77241
6.62723
5.62426
4.78493
13.2025
12.8696
12.5899
12.3156
11.9279
11.3659
10.7896
10.6637
11.9589
14.6749
18.2724
22.1983
25.9421
29.1473
31.7202
32.7869
32.8151
31.9197
30.3081
28.1868
25.7787
23.2457
20.7095
18.2531
15.9322
13.7776
11.8093
10.038
8.44903
7.07948
19.8708
19.713
19.6485
19.5884
19.4832
19.3146
19.2211
19.7055
21.6224
25.1416
29.7494
34.7169
39.3721
43.2102
46.1388
47.2131
47.1479
46.047
44.1303
41.5565
38.579
35.3898
32.1051
28.8132
25.5983
22.4993
19.5475
16.7767
14.1943
11.8806
31.0874
31.0218
31.2503
31.6538
32.1382
32.6493
33.3627
34.9175
37.7374
41.9382
47.175
52.6794
57.7106
61.6256
64.1808
64.6778
64.2313
62.8495
60.7824
58.0817
54.9676
51.6237
48.1287
44.512
40.8221
37.0502
33.2009
29.3214
25.4697
21.8178
43.9988
44.0576
44.8128
45.7276
46.5534
47.3413
48.6189
51.1651
55.2186
60.0234
65.243
70.2442
74.4845
77.3216
78.0823
76.7923
75.2788
73.2029
70.9274
68.3927
65.7329
63.0369
60.3632
57.6707
54.9089
51.9391
48.6786
45.0932
41.2627
37.3706
45.4349
46.2224
47.621
48.9273
49.7463
50.2138
51.1005
53.2596
57.1073
62.0187
66.849
70.8845
73.7178
74.9674
74.0029
71.2667
68.8699
66.1371
63.5286
61.048
58.7883
56.7287
54.9244
53.3771
51.9675
50.5565
49.0804
47.5385
45.932
44.3974
8.03233
10.8821
12.4306
13.669
14.5811
15.2118
15.6028
15.7754
15.7279
15.4689
14.9907
14.3383
13.519
12.6102
11.6054
10.4942
9.2006
7.98665
7.09142
6.39477
5.49928
4.20223
2.67733
1.27993
0.204378
0.180529
0.737609
0.847433
1.02411
1.15831
4.98543
5.89275
6.48699
6.97437
7.32157
7.5417
7.65215
7.66276
7.57795
7.40365
7.1517
6.83478
6.48002
6.09615
5.69861
5.23542
4.71658
4.28893
4.08579
3.95485
3.61247
2.9613
2.09322
1.16083
0.366405
0.227422
0.352227
0.452448
0.503961
0.535612
4.55604
5.25752
5.81447
6.24409
6.53625
6.70328
6.75918
6.71312
6.57593
6.36294
6.09458
5.79052
5.47752
5.16715
4.86087
4.51024
4.11751
3.81856
3.7124
3.66704
3.43779
2.91054
2.15804
1.32876
0.545229
0.275203
0.308661
0.374559
0.435427
0.493963
4.26481
4.93617
5.557
6.04971
6.38105
6.56106
6.61131
6.54481
6.38111
6.14449
5.8632
5.56221
5.26654
4.99128
4.72631
4.421
4.07477
3.81889
3.73764
3.70605
3.50513
3.02379
2.31877
1.51884
0.726624
0.352613
0.310018
0.343342
0.39111
0.466019
3.9532
4.6073
5.30939
5.88689
6.28222
6.50001
6.56334
6.49702
6.32773
6.08606
5.80699
5.52265
5.25701
5.00856
4.77335
4.49761
4.18395
3.96094
3.88897
3.84986
3.65295
3.19085
2.50199
1.70797
0.910746
0.44921
0.332062
0.342413
0.381161
0.467075
3.60156
4.24015
5.00881
5.67105
6.13188
6.38692
6.47268
6.42325
6.26926
6.0475
5.7956
5.538
5.30171
5.08663
4.88019
4.63239
4.35003
4.1626
4.1001
4.04721
3.83881
3.37937
2.69495
1.89724
1.09335
0.563509
0.376342
0.35837
0.394933
0.487537
3.18997
3.82227
4.63809
5.36329
5.87785
6.1767
6.29586
6.27996
6.16241
5.98073
5.7732
5.55755
5.36338
5.18554
5.00938
4.79153
4.548
4.40202
4.35138
4.2817
4.05126
3.58259
2.89553
2.08961
1.27551
0.694758
0.442454
0.392039
0.424536
0.52378
2.67551
3.29507
4.14242
4.92343
5.4969
5.84938
6.01975
6.05721
5.99863
5.87869
5.73021
5.57281
5.4289
5.29199
5.14883
4.96672
4.77202
4.67401
4.63624
4.54635
4.28539
3.79801
3.10309
2.28724
1.46072
0.840422
0.529896
0.442864
0.466182
0.568887
2.1923
2.74366
3.56574
4.35913
4.97845
5.40375
5.64846
5.76064
5.78332
5.74494
5.67387
5.58377
5.49617
5.40301
5.2966
5.15867
5.02427
4.97891
4.95222
4.83695
4.53782
4.02378
3.31702
2.49133
1.65255
0.999379
0.637931
0.510204
0.519796
0.619662
1.76931
2.21501
2.96051
3.73579
4.38844
4.87108
5.19495
5.40661
5.53021
5.58901
5.60829
5.59453
5.56754
5.52116
5.45591
5.3727
5.31049
5.3189
5.29928
5.15009
4.80532
4.25825
3.5367
2.7024
1.85341
1.17162
0.764286
0.594119
0.585135
0.675811
1.42444
1.75427
2.38079
3.10194
3.76902
4.30639
4.70994
5.01626
5.25709
5.42473
5.54169
5.61007
5.64896
5.65242
5.63394
5.618
5.63737
5.6949
5.67449
5.48191
5.085
4.49996
3.76143
2.92037
2.0643
1.35775
0.908331
0.695642
0.661402
0.739162
1.16415
1.3925
1.88155
2.51151
3.16454
3.74543
4.22692
4.62888
4.98139
5.26523
5.48517
5.63822
5.7471
5.80512
5.84173
5.90648
6.00981
6.11098
6.07537
5.82896
5.37452
4.74829
3.99126
3.14489
2.2853
1.55895
1.07068
0.815389
0.750186
0.811552
0.989127
1.1428
1.50421
2.01942
2.62272
3.22483
3.77414
4.26802
4.71935
5.12301
5.44959
5.68826
5.87122
5.98953
6.09258
6.25005
6.43509
6.56573
6.49922
6.18883
5.67281
5.00401
4.22849
3.37722
2.51724
1.77596
1.25243
0.954538
0.853437
0.89515
0.898451
1.00574
1.26486
1.66574
2.18867
2.7792
3.37583
3.95063
4.49647
5.01601
5.43295
5.77041
6.03336
6.2208
6.40274
6.66316
6.92085
7.06152
6.94534
6.56184
5.98112
5.27038
4.47685
3.62012
2.76146
2.00928
1.45479
1.11462
0.973448
0.992936
0.884271
0.962605
1.1599
1.46187
1.88857
2.43369
3.04964
3.68898
4.32924
4.93939
5.44946
5.89852
6.24968
6.51914
6.79323
7.16342
7.47405
7.60354
7.4179
6.95331
6.30585
5.5545
4.74234
3.87986
3.0222
2.26146
1.67936
1.29745
1.11318
1.10567
0.965941
1.02666
1.15862
1.38181
1.71965
2.19974
2.80873
3.496
4.20602
4.89435
5.532
6.09074
6.5418
6.91055
7.2928
7.7735
8.11806
8.2047
7.93041
7.377
6.66142
5.86932
5.0362
4.17091
3.31142
2.54238
1.92962
1.50541
1.27698
1.23439
1.15603
1.19898
1.2967
1.42547
1.65794
2.06
2.64021
3.35415
4.12586
4.88715
5.6857
6.36966
6.93923
7.43067
7.93982
8.5238
8.87053
8.88873
8.50961
7.86
7.07276
6.23648
5.37916
4.50468
3.64262
2.85685
2.21031
1.74191
1.46693
1.3841
1.47102
1.48358
1.54608
1.60692
1.71888
2.00899
2.54106
3.26673
4.09365
4.97999
5.93753
6.76911
7.48401
8.12933
8.78689
9.45853
9.77657
9.69823
9.20285
8.44843
7.57854
6.69427
5.81375
4.92135
4.03694
3.21876
2.52995
2.01284
1.68732
1.55734
1.92663
1.89333
1.90863
1.9049
1.91153
2.06597
2.51202
3.23748
4.14782
5.21373
6.32741
7.33915
8.23752
9.07769
9.90831
10.6449
10.9063
10.7083
10.0895
9.21561
8.2479
7.34257
6.40873
5.46039
4.52351
3.65079
2.90352
2.32868
1.94602
1.76164
2.54447
2.44752
2.40237
2.32924
2.24213
2.26215
2.61122
3.33138
4.37522
5.60723
6.91361
8.15558
9.29276
10.3795
11.4123
12.1875
12.371
12.0428
11.3018
10.2897
9.28383
8.27818
7.23061
6.1741
5.14192
4.18134
3.3553
2.70832
2.25768
2.00918
3.35919
3.18404
3.07241
2.92011
2.73312
2.63005
2.88221
3.63462
4.80519
6.23887
7.79828
9.33707
10.7917
12.1902
13.4614
14.2512
14.3506
13.9073
13.0737
11.9421
10.8215
9.614
8.36697
7.13226
5.94824
4.86192
3.92833
3.18655
2.64954
2.32076
4.42807
4.17242
3.98927
3.75763
3.4624
3.24214
3.38574
4.17585
5.52988
7.24552
9.14935
11.0787
12.9543
14.7458
16.3045
17.1011
17.1437
16.6547
15.6947
14.4086
13.0001
11.484
9.9481
8.45728
7.05501
5.78762
4.70244
3.82946
3.17492
2.7393
5.85711
5.52692
5.27411
4.97505
4.58433
4.25419
4.28738
5.14419
6.75184
8.85709
11.2399
13.6947
16.119
18.399
20.3212
21.1589
21.2333
20.6018
19.4122
17.86
16.0696
14.1506
12.2234
10.3771
8.66526
7.13451
5.82736
4.76381
3.93853
3.34869
7.84656
7.45872
7.17153
6.84252
6.39392
5.97686
5.92817
6.89218
8.8534
11.4954
14.529
17.6781
20.7922
23.6604
26.0666
26.9131
26.8812
26.0305
24.571
22.6504
20.413
18.0081
15.5917
13.2781
11.1395
9.22978
7.59082
6.23725
5.14883
4.32305
10.7677
10.3885
10.1245
9.83607
9.4314
8.99743
8.96541
10.1042
12.5296
15.8652
19.7204
23.7196
27.6379
31.1343
34.0189
34.7293
34.4701
33.3258
31.5461
29.2333
26.5315
23.6036
20.6427
17.7802
15.0972
12.6675
10.5401
8.73639
7.22928
6.02254
15.3396
15.0414
14.869
14.7189
14.5111
14.2747
14.4871
15.9299
18.8759
22.9901
27.7434
32.6382
37.3522
41.3765
44.551
44.8081
44.1226
42.5897
40.4896
37.8619
34.8226
31.4915
28.0843
24.7195
21.4714
18.4191
15.635
13.1695
11.0093
9.18449
22.5554
22.3501
22.3254
22.416
22.5616
22.8851
23.7061
25.6431
29.1182
33.8668
39.3615
44.9403
50.1803
54.3809
57.2828
56.409
54.6711
52.3962
49.9882
47.2999
44.4266
41.3809
38.0943
34.6419
31.1226
27.6041
24.1702
20.9166
17.8834
15.1672
32.6828
32.5161
32.7142
33.1113
33.6365
34.4814
36.149
39.0509
43.066
48.1151
53.8939
59.594
64.7126
68.2945
69.7261
66.3721
63.3241
60.2429
57.5598
54.9522
52.4874
50.0967
47.7324
45.2795
42.6135
39.6269
36.2919
32.6945
28.9634
25.304
42.0421
42.288
42.9609
43.7087
44.4327
45.4184
47.3656
50.8015
55.5243
60.8937
66.5424
71.6872
75.7383
77.5127
76.4094
70.5451
66.1536
62.2172
59.2352
56.7572
54.8019
53.236
51.9793
50.8229
49.5386
47.8985
45.7814
43.2059
40.282
37.2752
41.6062
42.6573
44.011
45.2332
46.1687
47.1278
48.9201
52.1652
56.8834
62.3497
67.687
71.9689
74.7305
74.8398
71.4183
64.0357
58.8116
54.38
51.0846
48.5595
46.8385
45.7206
45.1089
44.8237
44.6465
44.3542
43.8363
43.0984
42.2289
41.4381
11.1936
14.6447
16.3496
17.5896
18.5133
19.1395
19.5174
19.6692
19.5789
19.237
18.6089
17.734
16.6072
15.3219
13.8602
12.2074
10.4096
9.2444
9.19296
9.52754
8.91318
6.96695
4.3058
1.7486
0.192361
0.184581
0.803768
1.0051
1.20532
1.30836
6.66121
7.60219
8.13682
8.55521
8.88288
9.09973
9.20974
9.21578
9.11557
8.90451
8.59441
8.18916
7.72734
7.20248
6.64176
5.95623
5.27405
4.98869
5.33458
5.76596
5.54708
4.59779
3.2426
1.70442
0.34495
0.236923