/*--------------------------------*- C++ -*----------------------------------*\
| =========                 |                                                 |
| \\      /  F ield         | OpenFOAM: The Open Source CFD Toolbox           |
|  \\    /   O peration     | Version:  5.0                                   |
|   \\  /    A nd           | Web:      www.OpenFOAM.org                      |
|    \\/     M anipulation  |                                                 |
\*---------------------------------------------------------------------------*/
FoamFile
{
    version     2.0;
    format      ascii;
    class       volScalarField;
    location    "1100/air";
    object      k;
}
// * * * * * * * * * * * * * * * * * * * * * * * * * * * * * * * * * * * * * //

dimensions      [0 2 -2 0 0 0 0];

internalField   nonuniform List<scalar> 
243000
(
0.0509577
0.0618494
0.0666444
0.0694263
0.0705425
0.070381
0.069254
0.0673788
0.0648885
0.0619137
0.0585338
0.0549363
0.0513101
0.0480518
0.0454485
0.0438099
0.0428714
0.0421622
0.0411729
0.0397677
0.0379487
0.035824
0.0335303
0.0311942
0.028949
0.0267524
0.0249913
0.0232532
0.0201633
0.0222916
0.0782491
0.0936424
0.0997732
0.102918
0.103791
0.103159
0.10143
0.0988667
0.0956489
0.09195
0.0879166
0.0838625
0.0800108
0.0768649
0.07466
0.0736146
0.0729058
0.0717583
0.0695463
0.0665363
0.0629365
0.0589895
0.0548551
0.050685
0.04673
0.0431936
0.0390695
0.0331065
0.027438
0.0295497
0.0877005
0.106882
0.114726
0.119207
0.120806
0.120515
0.118881
0.116252
0.112881
0.109034
0.104929
0.100947
0.0973357
0.0946567
0.093085
0.0927229
0.0923492
0.0909989
0.0880379
0.0839488
0.0791336
0.0739297
0.0685305
0.0630857
0.0578254
0.0529939
0.0480422
0.0416943
0.0348336
0.0313603
0.0843067
0.107814
0.119822
0.126759
0.129827
0.130657
0.129788
0.127716
0.124796
0.121391
0.117789
0.114429
0.111579
0.109837
0.109293
0.109889
0.110032
0.10864
0.105096
0.100075
0.0941655
0.0878139
0.081262
0.0746648
0.068218
0.0621656
0.0562363
0.04953
0.0422121
0.0368932
0.0742523
0.100338
0.116256
0.126292
0.13203
0.134801
0.135335
0.134378
0.132427
0.129959
0.127344
0.12507
0.123407
0.122966
0.123733
0.125432
0.126161
0.1248
0.1208
0.114993
0.108126
0.100759
0.0931831
0.0855624
0.0780719
0.0709423
0.0640257
0.0568442
0.0492222
0.0428358
0.0651547
0.0893106
0.106598
0.119953
0.128588
0.133789
0.136319
0.137028
0.136523
0.135431
0.134216
0.133422
0.133296
0.134455
0.136727
0.139595
0.140925
0.139634
0.135258
0.128784
0.121095
0.112844
0.104372
0.0958538
0.0874521
0.0793887
0.0715879
0.063801
0.0558291
0.0486284
0.0572863
0.0778591
0.095793
0.109917
0.120775
0.128544
0.133467
0.136274
0.137646
0.138338
0.138889
0.139915
0.141636
0.144626
0.148523
0.152578
0.154492
0.153282
0.148597
0.141556
0.133159
0.124144
0.114898
0.105599
0.0964047
0.0875332
0.0789564
0.0705063
0.0621295
0.0542888
0.0549576
0.0664103
0.0844224
0.0996806
0.111621
0.120448
0.127628
0.13272
0.136278
0.139082
0.141761
0.144908
0.14873
0.153724
0.159316
0.164539
0.167003
0.165871
0.160928
0.153407
0.1444
0.134726
0.124812
0.114843
0.104967
0.0954008
0.086146
0.0770273
0.0682137
0.059864
0.0606223
0.060355
0.0731719
0.0888107
0.102126
0.112345
0.120492
0.127158
0.132921
0.13808
0.14318
0.14868
0.154817
0.161956
0.169253
0.175603
0.178573
0.177506
0.172345
0.164417
0.154887
0.144642
0.134157
0.123622
0.113172
0.103011
0.0931613
0.0833956
0.074136
0.065365
0.06895
0.0646732
0.0659161
0.0780452
0.0920666
0.103846
0.11333
0.121068
0.128191
0.13566
0.14331
0.151446
0.160095
0.169472
0.178451
0.185866
0.189289
0.188279
0.182929
0.174658
0.16468
0.153945
0.14297
0.13196
0.121036
0.11037
0.100001
0.0896566
0.0799413
0.0707833
0.0783258
0.0737678
0.0680506
0.0705701
0.0820924
0.094857
0.105886
0.114996
0.123161
0.132227
0.142503
0.153453
0.164731
0.176385
0.187001
0.195402
0.199219
0.198255
0.192752
0.184189
0.17384
0.162686
0.15129
0.139875
0.128561
0.117476
0.106657
0.0958425
0.0856591
0.0761174
0.0882909
0.0842286
0.0777118
0.0710205
0.0746776
0.0859294
0.0981194
0.108785
0.118279
0.12825
0.141007
0.154916
0.168869
0.182792
0.194966
0.204261
0.208412
0.207486
0.201862
0.193061
0.182407
0.170904
0.15915
0.147392
0.135752
0.124325
0.113127
0.101911
0.0912969
0.0813684
0.0987693
0.095146
0.0889349
0.080446
0.0736427
0.0788227
0.0904059
0.102418
0.113436
0.124638
0.139072
0.155916
0.172615
0.188759
0.202387
0.212476
0.216904
0.216009
0.210298
0.20131
0.190415
0.178632
0.166583
0.154541
0.142636
0.130931
0.119415
0.107855
0.0968227
0.0865257
0.109771
0.106327
0.100396
0.0916999
0.0806912
0.0762532
0.0837929
0.0961025
0.108603
0.121292
0.136901
0.1566
0.176047
0.194329
0.209285
0.220062
0.224718
0.223849
0.218084
0.208966
0.197892
0.185897
0.17362
0.161358
0.149248
0.137319
0.12554
0.113695
0.102262
0.0916087
0.121327
0.117801
0.111903
0.103244
0.0916519
0.0797549
0.0798576
0.0903323
0.103875
0.118152
0.134849
0.1571
0.179216
0.199515
0.215662
0.227022
0.231865
0.231022
0.225237
0.216047
0.204861
0.192721
0.180286
0.16787
0.155614
0.143515
0.13152
0.119413
0.107614
0.0966433
0.133461
0.129628
0.123522
0.114748
0.102873
0.0879761
0.0798647
0.085868
0.0994481
0.115197
0.133182
0.157515
0.182148
0.204307
0.221504
0.23335
0.238347
0.237537
0.231764
0.222561
0.211333
0.199125
0.186601
0.174099
0.16175
0.149531
0.137356
0.125034
0.112907
0.101645
0.146178
0.141845
0.135329
0.126247
0.114125
0.098825
0.0844187
0.0835939
0.0956437
0.112474
0.131835
0.157886
0.184842
0.208675
0.226781
0.23903
0.244158
0.243394
0.237669
0.228506
0.217312
0.205119
0.192583
0.180057
0.16767
0.155376
0.14308
0.13058
0.118158
0.106629
0.159475
0.154469
0.147376
0.137818
0.125321
0.109584
0.0919757
0.0839256
0.092737
0.110056
0.130762
0.158205
0.187284
0.21257
0.231449
0.244032
0.249284
0.248591
0.242942
0.233892
0.222808
0.210707
0.198237
0.185755
0.173389
0.161077
0.148707
0.13607
0.123383
0.11162
0.173321
0.167497
0.159689
0.149512
0.136489
0.120219
0.101107
0.0870932
0.0910516
0.108038
0.129931
0.158441
0.189371
0.215918
0.23545
0.248319
0.253698
0.253111
0.247602
0.238741
0.227833
0.215896
0.203567
0.191199
0.178917
0.16665
0.154257
0.14153
0.128602
0.116625
0.18773
0.180939
0.172287
0.161368
0.147698
0.130885
0.110906
0.0925765
0.0906871
0.106515
0.129307
0.158522
0.191029
0.218645
0.238723
0.251851
0.257377
0.256953
0.251671
0.243067
0.232398
0.220694
0.208582
0.196402
0.184269
0.172113
0.159765
0.147002
0.133846
0.121669
0.202702
0.194829
0.185216
0.173445
0.159046
0.1419
0.121008
0.0995661
0.0920807
0.105587
0.128861
0.158392
0.19216
0.220674
0.241198
0.254574
0.260303
0.260109
0.255138
0.246869
0.236516
0.225118
0.2133
0.201381
0.189469
0.177495
0.165267
0.152534
0.139159
0.126788
0.218546
0.209368
0.198621
0.185875
0.170727
0.153089
0.131172
0.107457
0.0949367
0.105276
0.128602
0.158155
0.192615
0.221914
0.242772
0.256405
0.262417
0.262543
0.257975
0.250138
0.240195
0.229185
0.217742
0.206169
0.194557
0.182838
0.170816
0.15821
0.144717
0.132086
0.235114
0.224899
0.212808
0.199021
0.183668
0.164684
0.141436
0.115829
0.0989951
0.105665
0.128591
0.158074
0.192272
0.221945
0.243246
0.257175
0.263569
0.264137
0.260093
0.252809
0.243398
0.232885
0.221922
0.210794
0.199578
0.188199
0.176474
0.164096
0.150648
0.137657
0.251594
0.241061
0.22879
0.214338
0.197215
0.176531
0.151791
0.12446
0.104004
0.106875
0.128953
0.158181
0.191184
0.220793
0.242297
0.256531
0.263412
0.264576
0.26122
0.254671
0.245949
0.236089
0.225761
0.21523
0.204545
0.19363
0.1823
0.17023
0.156912
0.143547
0.267952
0.258012
0.245516
0.229314
0.210438
0.188356
0.162318
0.133446
0.109992
0.109145
0.129972
0.158826
0.190232
0.218324
0.239594
0.254005
0.261383
0.263296
0.260795
0.255107
0.247319
0.238374
0.228896
0.219153
0.209218
0.198976
0.188206
0.176544
0.16341
0.149752
0.28235
0.271822
0.258532
0.242003
0.222999
0.200466
0.17368
0.143616
0.117694
0.113341
0.132902
0.161403
0.191403
0.217944
0.23823
0.252115
0.259757
0.262314
0.260701
0.255969
0.249029
0.240703
0.231625
0.222159
0.213024
0.203676
0.19369
0.182624
0.169815
0.156386
0.292753
0.282278
0.270126
0.255278
0.237165
0.215037
0.18829
0.157792
0.130314
0.122766
0.141231
0.169491
0.198453
0.223699
0.243043
0.256348
0.26396
0.266875
0.265946
0.261914
0.255617
0.247793
0.239037
0.229754
0.220453
0.210973
0.201018
0.190283
0.178259
0.165131
0.311852
0.301431
0.289623
0.27573
0.259008
0.238594
0.2138
0.185281
0.15873
0.149457
0.166654
0.194467
0.222272
0.246013
0.263953
0.276069
0.282904
0.28558
0.284709
0.28086
0.274768
0.267084
0.258353
0.248954
0.239286
0.229344
0.218937
0.207826
0.195545
0.181756
0.351727
0.34303
0.333973
0.324062
0.312563
0.298493
0.281113
0.260875
0.242079
0.235254
0.24998
0.274328
0.298043
0.317692
0.331872
0.34076
0.345165
0.346241
0.344311
0.339871
0.333477
0.32558
0.316626
0.306882
0.296667
0.285766
0.273959
0.26137
0.247838
0.232686
0.508469
0.508604
0.509135
0.509144
0.507935
0.504587
0.499132
0.492371
0.486715
0.483573
0.487046
0.495557
0.504421
0.51172
0.515771
0.518253
0.518718
0.518444
0.517179
0.515574
0.513604
0.511369
0.508933
0.506401
0.503575
0.498246
0.489418
0.479598
0.470713
0.460155
0.0777931
0.0951515
0.104274
0.109641
0.112248
0.112834
0.111871
0.10969
0.106508
0.10258
0.0981023
0.0934349
0.0888076
0.0847029
0.0812415
0.0784497
0.0754972
0.0718665
0.0672981
0.0619479
0.0558329
0.0490665
0.041898
0.0347337
0.029116
0.0267169
0.0244213
0.0231874
0.0237418
0.0271719
0.13259
0.155265
0.165089
0.168559
0.168228
0.165615
0.161532
0.156526
0.150962
0.1452
0.139452
0.134116
0.129243
0.125173
0.121564
0.117884
0.112426
0.105237
0.0966212
0.088402
0.0800234
0.0713192
0.0620847
0.0524328
0.0434674
0.0370367
0.0339497
0.0353583
0.0399203
0.0380839
0.1649
0.188852
0.202481
0.208385
0.209418
0.207442
0.203507
0.198397
0.192674
0.186858
0.181236
0.176255
0.171842
0.168243
0.164867
0.160854
0.153878
0.144227
0.132625
0.121228
0.109897
0.0984576
0.0864525
0.0738129
0.0615963
0.0520377
0.0458315
0.0430944
0.0456774
0.0471169
0.176494
0.204307
0.221929
0.230161
0.233294
0.232797
0.230032
0.226009
0.221454
0.216978
0.212878
0.209541
0.206715
0.204478
0.202018
0.198254
0.190435
0.179049
0.165147
0.151122
0.137199
0.123295
0.108909
0.0938198
0.0789494
0.0667557
0.0580832
0.0517457
0.0494566
0.0488127
0.166762
0.199871
0.223232
0.237191
0.243835
0.245593
0.244772
0.242711
0.240311
0.238241
0.236744
0.236051
0.235651
0.23543
0.234339
0.231181
0.222919
0.210247
0.194507
0.178317
0.162169
0.146133
0.129732
0.112661
0.0956859
0.0812874
0.0706135
0.0617369
0.0554297
0.0521741
0.139223
0.180786
0.211778
0.231414
0.24234
0.247823
0.249913
0.25069
0.251335
0.252614
0.254634
0.257413
0.260088
0.262358
0.262917
0.260564
0.25212
0.23847
0.221233
0.203239
0.185184
0.1673
0.149179
0.13047
0.111822
0.0955859
0.0831856
0.0726099
0.0635851
0.0580929
0.108333
0.151503
0.186514
0.213465
0.230941
0.241125
0.24705
0.25147
0.256056
0.261578
0.26792
0.27484
0.281072
0.286133
0.288533
0.287075
0.278627
0.264238
0.245784
0.226271
0.206578
0.187097
0.167505
0.147415
0.127421
0.109668
0.0957152
0.0839017
0.0731258
0.0656679
0.0843726
0.119091
0.156351
0.188372
0.211497
0.227039
0.237659
0.246441
0.25524
0.266309
0.277622
0.289228
0.299371
0.307392
0.311718
0.311181
0.302847
0.287925
0.268489
0.247696
0.226592
0.205741
0.18489
0.163638
0.142536
0.123528
0.108188
0.095349
0.0833778
0.0743428
0.0712622
0.0918711
0.125604
0.160009
0.187698
0.208395
0.223376
0.236912
0.250835
0.267622
0.284524
0.301264
0.315552
0.32661
0.332854
0.33322
0.32508
0.309789
0.28959
0.267718
0.245408
0.223371
0.201454
0.179239
0.157213
0.137162
0.120597
0.106834
0.0938902
0.0836266
0.0672043
0.0762128
0.0991503
0.131362
0.161886
0.187004
0.206863
0.224508
0.243533
0.266206
0.28952
0.311475
0.33004
0.344133
0.352224
0.353447
0.345547
0.330023
0.309247
0.286471
0.26314
0.240087
0.217259
0.194258
0.171489
0.150582
0.132949
0.118294
0.104526
0.0932469
0.0704086
0.0724864
0.0828829
0.106418
0.136232
0.164513
0.188855
0.211075
0.23443
0.263362
0.293399
0.320388
0.343141
0.360214
0.370036
0.372058
0.364423
0.34877
0.327577
0.304023
0.27987
0.255953
0.232354
0.208722
0.185395
0.163809
0.145259
0.129719
0.115281
0.103192
0.0796988
0.0780741
0.0798956
0.0908924
0.114033
0.142637
0.170537
0.197209
0.225321
0.259647
0.296115
0.328367
0.355166
0.375024
0.38643
0.389204
0.381847
0.366154
0.344669
0.320449
0.295647
0.271019
0.246783
0.222664
0.198951
0.176855
0.15755
0.141199
0.126225
0.113504
0.0952215
0.0920614
0.0890012
0.0887258
0.1001
0.123889
0.153119
0.1835
0.216716
0.25553
0.298195
0.335686
0.366305
0.388724
0.401541
0.405016
0.397939
0.382272
0.360601
0.335844
0.310525
0.285326
0.260589
0.236121
0.21218
0.189733
0.169846
0.152804
0.137432
0.124228
0.115736
0.111151
0.10587
0.0990363
0.0976321
0.111724
0.138187
0.170996
0.20863
0.251934
0.300062
0.342542
0.376678
0.401418
0.415492
0.419609
0.412802
0.397218
0.375439
0.350309
0.324557
0.298913
0.273812
0.249138
0.225114
0.20247
0.182171
0.164583
0.148958
0.135395
0.139986
0.134164
0.127214
0.117174
0.10716
0.10761
0.127798
0.160594
0.201424
0.248974
0.301794
0.349046
0.386353
0.413184
0.428394
0.433101
0.426547
0.411073
0.389263
0.3639
0.337799
0.311818
0.286501
0.261762
0.237785
0.215096
0.194544
0.176565
0.160832
0.147022
0.167681
0.160568
0.152084
0.139884
0.124315
0.113808
0.122676
0.15253
0.195413
0.246745
0.30338
0.355293
0.395372
0.424091
0.440362
0.445626
0.439326
0.423962
0.402143
0.376643
0.350313
0.324144
0.298727
0.27405
0.250231
0.227632
0.206975
0.188774
0.173069
0.159113
0.1984
0.18993
0.179889
0.165704
0.146672
0.128268
0.123423
0.147488
0.190887
0.245314
0.305049
0.361186
0.403763
0.434225
0.451538
0.457359
0.451315
0.436049
0.414216
0.388596
0.362191
0.336008
0.310587
0.28607
0.26251
0.240116
0.219494
0.201231
0.185678
0.171663
0.231734
0.221887
0.210257
0.194167
0.172523
0.148162
0.132424
0.145848
0.188037
0.244669
0.307041
0.366617
0.411579
0.44373
0.462127
0.46854
0.462755
0.447571
0.425669
0.400057
0.373691
0.347498
0.32219
0.297925
0.2747
0.252614
0.232157
0.213975
0.198674
0.184675
0.267229
0.256077
0.242891
0.224926
0.200903
0.171809
0.14728
0.147884
0.18693
0.244839
0.309497
0.371653
0.41898
0.452864
0.47245
0.479536
0.47402
0.458881
0.437047
0.41154
0.385034
0.358866
0.333705
0.309757
0.286923
0.265232
0.245048
0.227076
0.212103
0.198173
0.304369
0.29212
0.27753
0.257768
0.231436
0.198218
0.166165
0.155905
0.188092
0.246259
0.31247
0.376533
0.426341
0.4621
0.483055
0.490939
0.485702
0.470814
0.449075
0.423466
0.396732
0.370541
0.345488
0.321823
0.299406
0.27816
0.258317
0.240674
0.226083
0.212241
0.342649
0.329645
0.313957
0.292664
0.264133
0.227021
0.188191
0.168088
0.19227
0.249136
0.316339
0.382018
0.434454
0.472327
0.494924
0.503773
0.499069
0.484345
0.462566
0.436763
0.409685
0.383292
0.358181
0.334649
0.312568
0.291726
0.272236
0.255046
0.240862
0.227088
0.381552
0.36838
0.352169
0.329902
0.299322
0.258388
0.213207
0.184231
0.200147
0.254255
0.322293
0.39018
0.444905
0.485255
0.509892
0.519919
0.515996
0.501359
0.479401
0.453204
0.425509
0.398533
0.372993
0.349275
0.327255
0.306595
0.287396
0.270758
0.256906
0.24315
0.421451
0.408466
0.392695
0.370586
0.337864
0.293264
0.242044
0.205139
0.212141
0.263938
0.333599
0.403349
0.460821
0.504268
0.531555
0.543056
0.540231
0.525637
0.50327
0.47627
0.447404
0.419163
0.392508
0.367906
0.345288
0.324364
0.30542
0.289063
0.275242
0.261237
0.464842
0.452116
0.43736
0.415437
0.381316
0.333708
0.277485
0.233088
0.230507
0.281297
0.353033
0.426596
0.488991
0.536451
0.567355
0.580796
0.579453
0.565085
0.542017
0.513516
0.482811
0.452242
0.423228
0.396424
0.37194
0.349698
0.329887
0.312858
0.298072
0.282975
0.516619
0.50516
0.490637
0.46886
0.434446
0.385426
0.326002
0.275
0.263488
0.313543
0.389772
0.470426
0.541073
0.596185
0.633053
0.649353
0.649522
0.635009
0.610259
0.579008
0.544822
0.510024
0.476585
0.445412
0.416741
0.3908
0.367872
0.347848
0.330089
0.31188
0.588183
0.577945
0.564284
0.543098
0.509609
0.461972
0.403303
0.349678
0.332012
0.381326
0.465012
0.556504
0.638051
0.702794
0.74775
0.767872
0.769297
0.754292
0.726802
0.691141
0.651258
0.610036
0.570047
0.532211
0.496422
0.463388
0.433499
0.406753
0.382128
0.356518
0.699724
0.69168
0.679622
0.660572
0.631688
0.591155
0.541346
0.495096
0.478585
0.528206
0.618857
0.720761
0.812149
0.885023
0.935959
0.958876
0.961359
0.946063
0.916213
0.875997
0.829722
0.781077
0.732734
0.685741
0.640573
0.597321
0.556182
0.517045
0.478364
0.438202
0.881873
0.876942
0.869225
0.856111
0.836352
0.808897
0.77655
0.75011
0.746485
0.797378
0.886886
0.988397
1.07885
1.15033
1.19861
1.22063
1.22435
1.21106
1.18289
1.14338
1.09625
1.04515
0.992817
0.939822
0.887122
0.833973
0.779861
0.724599
0.666434
0.604667
1.09059
1.08972
1.09471
1.0955
1.09069
1.07917
1.06593
1.05845
1.07311
1.12424
1.19989
1.28043
1.35007
1.40424
1.43559
1.44827
1.45024
1.43949
1.41746
1.38663
1.34925
1.30749
1.26408
1.21867
1.17267
1.12398
1.07136
1.01408
0.949568
0.87949
1.13984
1.14611
1.16329
1.17595
1.17773
1.16743
1.15634
1.15671
1.1783
1.22673
1.28157
1.33183
1.37263
1.40249
1.41194
1.40852
1.40309
1.38977
1.37026
1.34672
1.32079
1.29338
1.26641
1.24202
1.21851
1.19437
1.16946
1.14395
1.1149
1.08356
0.102034
0.124679
0.135548
0.142457
0.146093
0.147311
0.146711
0.144689
0.141466
0.137303
0.13234
0.126936
0.121217
0.115646
0.11019
0.104728
0.098277
0.0909768
0.0834172
0.0757448
0.0672118
0.0570816
0.0454095
0.0329938
0.0279811
0.0262569
0.0236974
0.0240717
0.0278002
0.0313986
0.163727
0.199876
0.217911
0.225983
0.228293
0.227215
0.223951
0.21913
0.213123
0.206278
0.198716
0.190831
0.182554
0.174259
0.16547
0.155562
0.143306
0.131326
0.12163
0.11401
0.105929
0.0949086
0.0795243
0.060664
0.0440934
0.0368566
0.0347792
0.0352511
0.0421162
0.0453682
0.199018
0.243197
0.269581
0.284018
0.290219
0.291149
0.288478
0.283381
0.276596
0.268745
0.260102
0.251104
0.241623
0.231954
0.221472
0.209123
0.193323
0.177717
0.164855
0.154619
0.144115
0.130391
0.111208
0.0870924
0.0634715
0.0508299
0.0445847
0.0420784
0.048541
0.0559621
0.216535
0.267915
0.299427
0.319535
0.329591
0.333214
0.332038
0.327848
0.321722
0.314468
0.306434
0.297967
0.288827
0.279147
0.268235
0.254688
0.236657
0.218463
0.202929
0.190086
0.177118
0.160933
0.138932
0.111135
0.0825825
0.0650492
0.0551438
0.0488275
0.0510595
0.0582511
0.221182
0.272298
0.312432
0.338648
0.352042
0.35899
0.360096
0.357846
0.353604
0.348295
0.342228
0.335552
0.327842
0.319068
0.308473
0.294435
0.274942
0.2548
0.237064
0.221821
0.206513
0.188167
0.164023
0.133647
0.101599
0.0797009
0.066674
0.0570978
0.054995
0.061184
0.21308
0.264453
0.307723
0.338845
0.359428
0.371034
0.375305
0.376251
0.375151
0.373091
0.370206
0.366375
0.360932
0.353692
0.343899
0.329816
0.309386
0.287762
0.268189
0.250774
0.233294
0.213013
0.187185
0.154962
0.120433
0.0948279
0.0790821
0.0670519
0.0615941
0.0660981
0.189687
0.242332
0.290992
0.328315
0.353575
0.369678
0.379053
0.384871
0.388267
0.39076
0.392203
0.392108
0.389556
0.38429
0.375614
0.361792
0.340853
0.31815
0.297006
0.277623
0.258122
0.23609
0.208894
0.175341
0.139087
0.110421
0.0922176
0.0782583
0.0703911
0.0734645
0.160544
0.210214
0.261676
0.30407
0.335753
0.358328
0.373456
0.384327
0.394358
0.402697
0.409527
0.413979
0.414768
0.411743
0.40438
0.391031
0.369954
0.346503
0.323997
0.302831
0.281447
0.257811
0.229464
0.19499
0.157566
0.126469
0.105941
0.0903683
0.0806965
0.0827364
0.132819
0.173884
0.224556
0.271325
0.30869
0.337191
0.35952
0.377585
0.393823
0.41011
0.423235
0.432801
0.437358
0.436721
0.430762
0.41806
0.397143
0.373203
0.349523
0.326722
0.303575
0.278449
0.249128
0.214054
0.175885
0.142937
0.120208
0.103189
0.0920104
0.0929747
0.110668
0.140652
0.185464
0.233494
0.276099
0.310792
0.339553
0.36523
0.389734
0.414658
0.434181
0.449289
0.457846
0.459766
0.455222
0.443317
0.422774
0.398539
0.373848
0.34953
0.324722
0.298209
0.268043
0.232624
0.194078
0.159795
0.135085
0.116674
0.104161
0.103856
0.0960893
0.115467
0.150313
0.195262
0.24081
0.281259
0.316755
0.349653
0.382908
0.41659
0.442985
0.46399
0.476683
0.481297
0.478147
0.467171
0.447164
0.422775
0.397177
0.371432
0.345056
0.317239
0.286331
0.250764
0.212184
0.177008
0.150596
0.130859
0.117173
0.11538
0.0893995
0.10093
0.125118
0.161968
0.206298
0.250892
0.292848
0.333108
0.374525
0.416543
0.450472
0.477316
0.494272
0.501647
0.499885
0.489957
0.470599
0.446164
0.419716
0.392586
0.364712
0.335672
0.304105
0.268546
0.230209
0.194528
0.16674
0.145792
0.131027
0.127704
0.0893493
0.0963563
0.11263
0.139008
0.17708
0.222503
0.26966
0.317168
0.366339
0.415747
0.457299
0.489712
0.510923
0.521113
0.52077
0.512003
0.493369
0.468927
0.441645
0.41314
0.383823
0.353633
0.321483
0.286044
0.248168
0.212342
0.183521
0.161521
0.145752
0.140909
0.0980907
0.101969
0.110861
0.128798
0.157925
0.199363
0.249109
0.30295
0.358867
0.414588
0.463905
0.501591
0.526868
0.539961
0.541167
0.533656
0.515764
0.491316
0.463147
0.43326
0.40254
0.371266
0.338601
0.303367
0.266114
0.230448
0.200928
0.178071
0.161378
0.155041
0.114916
0.117013
0.121825
0.129744
0.149275
0.183952
0.232835
0.290632
0.35248
0.413772
0.470286
0.513193
0.542381
0.55848
0.561461
0.555297
0.538126
0.513603
0.484458
0.453165
0.421064
0.388757
0.355639
0.320669
0.284147
0.248875
0.218958
0.195451
0.17792
0.170113
0.140027
0.140628
0.142638
0.144385
0.151338
0.176429
0.221096
0.280798
0.347504
0.413785
0.476787
0.52473
0.557813
0.577009
0.582079
0.57737
0.560882
0.536135
0.505912
0.473164
0.439679
0.40637
0.372835
0.338164
0.302413
0.2677
0.237642
0.213677
0.195375
0.186108
0.172959
0.171639
0.170976
0.168184
0.166075
0.17654
0.214608
0.273889
0.344158
0.415238
0.483583
0.536441
0.573545
0.595996
0.603556
0.600427
0.584548
0.559393
0.527987
0.493713
0.458812
0.424489
0.390543
0.356152
0.321157
0.287085
0.257103
0.232793
0.213751
0.202984
0.212754
0.208721
0.20507
0.198143
0.189443
0.18809
0.213439
0.27007
0.342464
0.417931
0.490677
0.548676
0.590064
0.616099
0.626596
0.6252
0.609851
0.584101
0.551401
0.515507
0.479114
0.443727
0.409302
0.375095
0.340753
0.307316
0.277577
0.25291
0.233071
0.220708
0.25837
0.250933
0.243694
0.232537
0.217899
0.207115
0.219431
0.269209
0.342239
0.421835
0.498457
0.562055
0.608127
0.638281
0.652175
0.652732
0.637864
0.611371
0.577247
0.539638
0.501657
0.46509
0.429984
0.395731
0.361818
0.328917
0.299423
0.274242
0.253421
0.239279
0.308867
0.297586
0.286236
0.270523
0.250335
0.231949
0.23224
0.272874
0.344791
0.427563
0.508454
0.577682
0.628974
0.663966
0.681825
0.684593
0.670234
0.642923
0.607313
0.567891
0.528242
0.490184
0.45408
0.419373
0.385482
0.352933
0.323283
0.297187
0.275019
0.258769
0.363635
0.348092
0.332236
0.312079
0.286603
0.260893
0.250437
0.282065
0.351083
0.436711
0.523114
0.597402
0.654665
0.695431
0.717989
0.723262
0.709616
0.681572
0.644459
0.603242
0.561756
0.521798
0.484261
0.448484
0.41392
0.380772
0.35016
0.322446
0.298338
0.279462
0.422139
0.402431
0.382429
0.358178
0.327706
0.295024
0.275338
0.298057
0.363825
0.452808
0.544061
0.624379
0.688735
0.736445
0.76469
0.772887
0.760311
0.731891
0.693444
0.650652
0.607297
0.564955
0.524666
0.486326
0.449555
0.414416
0.381631
0.351283
0.324368
0.302091
0.485133
0.462054
0.43875
0.410998
0.376145
0.337217
0.309372
0.321448
0.386534
0.478626
0.57593
0.664501
0.73737
0.793374
0.828653
0.840314
0.829407
0.801432
0.762325
0.717459
0.670748
0.624324
0.579584
0.536836
0.495956
0.456978
0.42021
0.386012
0.355097
0.328259
0.555429
0.530366
0.505112
0.475111
0.437283
0.393563
0.358706
0.359333
0.423603
0.520794
0.626998
0.726555
0.810737
0.876715
0.920748
0.936349
0.927863
0.899699
0.858595
0.810016
0.75821
0.705846
0.654762
0.605607
0.558479
0.513498
0.470998
0.431268
0.394635
0.361436
0.639585
0.614964
0.589814
0.559852
0.521498
0.47578
0.436193
0.427935
0.489033
0.593543
0.711376
0.824123
0.920787
0.997123
1.05002
1.06894
1.06197
1.03343
0.990066
0.937208
0.879519
0.820069
0.76107
0.703624
0.64812
0.594852
0.544222
0.496471
0.451479
0.409342
0.751359
0.730588
0.70822
0.68121
0.645973
0.603199
0.564549
0.552589
0.610124
0.720311
0.849178
0.974223
1.08213
1.16654
1.22583
1.24596
1.23927
1.2103
1.16527
1.10889
1.04611
0.98026
0.913635
0.847577
0.782769
0.719559
0.658379
0.599646
0.542823
0.487943
0.912713
0.898743
0.882899
0.861539
0.833131
0.799281
0.769579
0.76206
0.816531
0.92618
1.05911
1.18927
1.30165
1.38758
1.44603
1.46272
1.4543
1.42489
1.38029
1.32375
1.26016
1.19291
1.12371
1.05351
0.982971
0.912043
0.840832
0.769729
0.698223
0.62659
1.13552
1.1266
1.11775
1.1053
1.08785
1.0666
1.0494
1.05354
1.10645
1.20672
1.33041
1.45105
1.55458
1.63029
1.67444
1.67802
1.66293
1.63152
1.5897
1.53883
1.48286
1.42479
1.36556
1.30493
1.24224
1.17612
1.10545
1.02988
0.948804
0.863038
1.33862
1.33595
1.33787
1.33526
1.32562
1.31098
1.30256
1.31849
1.37448
1.46254
1.56638
1.66106
1.7392
1.78943
1.8038
1.78207
1.75341
1.7152
1.67438
1.63118
1.58826
1.54734
1.50922
1.47286
1.43577
1.39524
1.34883
1.29455
1.23122
1.15989
1.32893
1.34063
1.35663
1.36595
1.36411
1.35158
1.34614
1.36281
1.41122
1.48598
1.56533
1.63629
1.68647
1.70978
1.69781
1.65641
1.61667
1.57116
1.52793
1.48803
1.4535
1.42452
1.40181
1.38479
1.37083
1.35705
1.34184
1.32414
1.30256
1.27756
0.130461
0.155712
0.165973
0.172609
0.17608
0.177179
0.176525
0.174474
0.171151
0.166718
0.161162
0.154804
0.147653
0.140201
0.132301
0.123743
0.113708
0.104088
0.0969944
0.0915529
0.0839267
0.0712813
0.0537622
0.0336266
0.0253248
0.0237409
0.0242563
0.0276401
0.0321388
0.035791
0.20643
0.245308
0.263214
0.271738
0.274871
0.274973
0.273025
0.269281
0.263748
0.256482
0.247372
0.236823
0.224708
0.21167
0.197239
0.180958
0.163299
0.151514
0.148155
0.148648
0.144602
0.129799
0.102615
0.0682213
0.0376776
0.0311017
0.0321419
0.0377769
0.0478976
0.0552261
0.24832
0.294639
0.323573
0.341098
0.350763
0.355132
0.355327
0.352024
0.34569
0.33673
0.325328
0.312031
0.296859
0.280491
0.262445
0.241737
0.219191
0.20408
0.199019
0.198566
0.193231
0.175545
0.142699
0.0992524
0.0555289
0.0405942
0.0398618
0.0446067
0.0554374
0.0664335
0.268293
0.321101
0.3582
0.384729
0.401576
0.410858
0.414082
0.412143
0.406239
0.397081
0.385104
0.370836
0.354439
0.336514
0.316623
0.29327
0.267589
0.249925
0.242633
0.240085
0.232805
0.212861
0.176611
0.12753
0.0753512
0.0519225
0.0473717
0.0501126
0.0592163
0.0715494
0.273245
0.326023
0.375164
0.410732
0.43453
0.448835
0.455683
0.456061
0.451774
0.44378
0.432648
0.418791
0.402444
0.384075
0.363319
0.338323
0.310585
0.291034
0.281568
0.276589
0.267067
0.245179
0.206775
0.154066
0.0964165
0.0646721
0.0558688
0.0563037
0.0635579
0.0767276
0.26837
0.31955
0.373079
0.419142
0.452348
0.471598
0.482919
0.486878
0.485533
0.480116
0.471155
0.458919
0.443636
0.425604
0.404635
0.378735
0.34971
0.328846
0.317399
0.309909
0.29799
0.274291
0.234429
0.179403
0.118122
0.0793789
0.0659417
0.0640509
0.0698038
0.0836034
0.255789
0.304983
0.361884
0.412993
0.452039
0.480213
0.4975
0.506318
0.509571
0.508178
0.502676
0.493098
0.479643
0.462571
0.441883
0.415602
0.386089
0.364369
0.351149
0.341146
0.326716
0.301247
0.260328
0.203845
0.140185
0.0959017
0.0777136
0.0735279
0.0782528
0.0922135
0.233151
0.280658
0.340436
0.396716
0.441854
0.475432
0.499041
0.515764
0.525338
0.529577
0.528702
0.522643
0.51162
0.495991
0.475988
0.449845
0.420482
0.398326
0.383493
0.370985
0.353951
0.326703
0.284941
0.227658
0.162557
0.113995
0.0912884
0.0846479
0.0883188
0.102041
0.207013
0.251235
0.311423
0.370898
0.421247
0.461674
0.492218
0.515187
0.534205
0.545501
0.550488
0.548626
0.540464
0.526661
0.507687
0.482194
0.453526
0.431255
0.414909
0.399867
0.380148
0.351071
0.308587
0.251044
0.185288
0.133459
0.106625
0.0972515
0.0997228
0.112688
0.180642
0.218855
0.276705
0.337637
0.392651
0.439183
0.477452
0.509219
0.538063
0.557055
0.568924
0.571962
0.566946
0.555253
0.537628
0.513285
0.485759
0.463609
0.445816
0.428102
0.405606
0.374647
0.331509
0.274146
0.208421
0.154158
0.123555
0.111233
0.112364
0.124003
0.156766
0.187531
0.239934
0.300172
0.358884
0.411644
0.457847
0.498829
0.536795
0.565241
0.584786
0.593366
0.591754
0.582395
0.566419
0.543711
0.51768
0.495731
0.476426
0.455919
0.430564
0.397662
0.353912
0.297072
0.23196
0.17601
0.142003
0.126589
0.126064
0.136117
0.137319
0.160875
0.20572
0.26254
0.323164
0.381631
0.435824
0.486335
0.533543
0.571797
0.598793
0.613349
0.615558
0.608695
0.594666
0.574053
0.54974
0.528077
0.506972
0.483522
0.455236
0.420341
0.375999
0.319915
0.25589
0.198977
0.161965
0.143433
0.140736
0.149202
0.123869
0.141787
0.178619
0.229499
0.289331
0.35204
0.413749
0.473356
0.529126
0.576997
0.611512
0.632431
0.63896
0.634776
0.623006
0.604919
0.582414
0.560829
0.537689
0.511133
0.479859
0.442941
0.398014
0.342817
0.280242
0.223002
0.183421
0.161755
0.156481
0.16327
0.117859
0.131366
0.160868
0.205285
0.261564
0.32588
0.39356
0.46098
0.524951
0.581418
0.623673
0.651163
0.66248
0.661304
0.652155
0.636977
0.61622
0.594366
0.568866
0.539037
0.50473
0.465786
0.420273
0.365983
0.305054
0.248019
0.206329
0.181557
0.173372
0.178338
0.120012
0.129804
0.153517
0.190406
0.241252
0.304478
0.375873
0.449994
0.521494
0.585744
0.635965
0.670021
0.686635
0.689067
0.682944
0.670962
0.651631
0.629127
0.600906
0.567644
0.530271
0.489323
0.443202
0.389742
0.330486
0.274038
0.230648
0.202844
0.191459
0.194441
0.13404
0.141646
0.158337
0.185919
0.229463
0.288816
0.361631
0.441004
0.519131
0.590385
0.648936
0.689618
0.712075
0.718926
0.716353
0.70771
0.689803
0.665736
0.634407
0.597553
0.557091
0.514163
0.467361
0.414589
0.356911
0.301272
0.256375
0.225627
0.210797
0.211572
0.160442
0.165606
0.177526
0.195134
0.226455
0.279705
0.351499
0.434434
0.518076
0.596249
0.663192
0.710723
0.739669
0.751812
0.753585
0.748224
0.731159
0.704969
0.670215
0.629646
0.586073
0.541143
0.493634
0.441359
0.385058
0.329989
0.283566
0.249924
0.231575
0.229617
0.198555
0.200145
0.207119
0.216254
0.235118
0.277171
0.345764
0.43049
0.518893
0.60426
0.679499
0.734306
0.770522
0.788919
0.796066
0.7937
0.776773
0.747941
0.709592
0.665199
0.618395
0.57163
0.523563
0.471513
0.41574
0.360559
0.312346
0.275784
0.253834
0.248469
0.246431
0.243463
0.244686
0.246137
0.253639
0.282789
0.34428
0.429176
0.522762
0.615332
0.698902
0.761691