/*--------------------------------*- C++ -*----------------------------------*\
| =========                 |                                                 |
| \\      /  F ield         | OpenFOAM: The Open Source CFD Toolbox           |
|  \\    /   O peration     | Version:  5.0                                   |
|   \\  /    A nd           | Web:      www.OpenFOAM.org                      |
|    \\/     M anipulation  |                                                 |
\*---------------------------------------------------------------------------*/
FoamFile
{
    version     2.0;
    format      ascii;
    class       volScalarField;
    location    "1100/air";
    object      nut;
}
// * * * * * * * * * * * * * * * * * * * * * * * * * * * * * * * * * * * * * //

dimensions      [0 2 -1 0 0 0 0];

internalField   nonuniform List<scalar> 
243000
(
0.000119158
0.000126348
0.000126357
0.000124393
0.000121116
0.000117063
0.000112599
0.000107955
0.000103254
9.86003e-05
9.40326e-05
8.96618e-05
8.56005e-05
8.21465e-05
7.95322e-05
7.80517e-05
7.75084e-05
7.74942e-05
7.7522e-05
7.74191e-05
7.71187e-05
7.66519e-05
7.60856e-05
7.5491e-05
7.49773e-05
7.44758e-05
0.000323931
0.000323401
6.64515e-05
7.85356e-05
0.000523355
0.000572458
0.000590823
0.00059997
0.000602421
0.000600516
0.000595406
0.000587794
0.000578116
0.000566795
0.000554179
0.000541183
0.000528507
0.000517876
0.000510232
0.000506528
0.000504089
0.000500247
0.000492621
0.000481989
0.000468878
0.000454005
0.000437836
0.000420856
0.000404026
0.000388339
0.000370159
0.000339676
0.00030818
0.000320895
0.000554065
0.000611562
0.000633486
0.00064563
0.000649847
0.000648991
0.000644512
0.000637289
0.000627927
0.000617071
0.000605261
0.000593561
0.000582715
0.000574489
0.000569547
0.000568365
0.000567298
0.000563348
0.000554321
0.000541479
0.000525856
0.000508359
0.000489489
0.000469645
0.000449577
0.000430257
0.000409638
0.000381591
0.000348712
0.00033081
0.000543446
0.000614315
0.000647401
0.000665731
0.00067363
0.000675691
0.000673367
0.000667897
0.000660137
0.000650969
0.000641119
0.00063177
0.000623698
0.000618655
0.000616993
0.000618654
0.000619199
0.00061554
0.000605684
0.000591256
0.000573689
0.000554105
0.000533088
0.000511004
0.000488394
0.000466098
0.000443188
0.000415868
0.0003839
0.000358788
0.000509976
0.000592784
0.000637754
0.000664516
0.000679299
0.000686274
0.000687539
0.000685009
0.000679908
0.000673406
0.00066644
0.000660295
0.000655725
0.000654407
0.000656352
0.000660888
0.000663005
0.000659738
0.000649381
0.000633824
0.000614779
0.000593577
0.000570889
0.000547065
0.000522528
0.000497977
0.000472948
0.000445529
0.000414529
0.000386601
0.000477678
0.000559307
0.000610799
0.000647657
0.000670377
0.000683654
0.000689961
0.000691623
0.000690204
0.000687267
0.000683985
0.00068177
0.000681283
0.000684121
0.000689836
0.000697146
0.000700709
0.000697849
0.000687158
0.000670772
0.00065062
0.000628182
0.000604209
0.000579049
0.000553053
0.000526827
0.000500147
0.000472031
0.000441473
0.000411926
0.000447845
0.000522288
0.000579019
0.000619963
0.000649677
0.000670067
0.000682613
0.00068959
0.000692871
0.000694399
0.00069556
0.000697925
0.000702056
0.00070935
0.000718872
0.000728801
0.000733658
0.000731165
0.000720255
0.000703253
0.000682263
0.000658882
0.000633942
0.000607772
0.000580682
0.000553218
0.000525296
0.000496245
0.000465733
0.000435265
0.000438335
0.000482383
0.000543602
0.000590385
0.000624528
0.000648564
0.000667404
0.000680383
0.000689223
0.000696021
0.000702453
0.000710008
0.000719195
0.000731156
0.000744441
0.000756798
0.000762788
0.000760606
0.000749549
0.000732099
0.000710469
0.000686379
0.000660712
0.000633807
0.000605919
0.000577561
0.00054872
0.000518712
0.000488024
0.000457095
0.000460264
0.000459552
0.000506108
0.000557267
0.000597322
0.000626286
0.000648387
0.000665806
0.000680451
0.000693229
0.000705679
0.000718906
0.000733533
0.000750319
0.000767226
0.000781807
0.000788776
0.000786839
0.000775684
0.000757909
0.0007358
0.000711167
0.000684976
0.000657563
0.000629143
0.000600159
0.000570642
0.000539752
0.000508788
0.000477654
0.000490936
0.000475466
0.000480287
0.000522405
0.000567083
0.000602022
0.000628694
0.000649543
0.000668
0.000686823
0.000705605
0.000725258
0.000745693
0.00076738
0.00078773
0.000804319
0.000812109
0.000810373
0.000799148
0.000781143
0.000758686
0.000733653
0.000707083
0.000679343
0.000650611
0.000621218
0.000591222
0.0005597
0.000528363
0.000497077
0.000523356
0.000507895
0.000487826
0.000496765
0.000535454
0.000575251
0.000607531
0.000632881
0.000654613
0.000677765
0.000703273
0.000729749
0.000756176
0.000782736
0.000806325
0.000824691
0.000833153
0.000831574
0.000820321
0.000802157
0.000779474
0.000754161
0.000727328
0.000699381
0.000670496
0.000640884
0.000610574
0.000578698
0.000546947
0.000515479
0.00055575
0.000542841
0.000521458
0.000498501
0.000510826
0.000547429
0.000584636
0.000615344
0.000641305
0.000667293
0.000699207
0.000732883
0.000765385
0.000796699
0.000823274
0.000843182
0.000852179
0.000850725
0.000839478
0.000821229
0.000798421
0.00077294
0.000745946
0.000717887
0.000688955
0.000659275
0.000628804
0.000596734
0.000564667
0.00053297
0.000587894
0.000577059
0.000557981
0.000530766
0.000507616
0.000524408
0.000561027
0.000596825
0.000627801
0.000657582
0.00069401
0.0007349
0.000773604
0.00080949
0.000838762
0.00085998
0.000869387
0.000868029
0.000856831
0.000838569
0.000815728
0.000790187
0.000763128
0.00073505
0.000706168
0.000676532
0.000646026
0.000613885
0.000581501
0.000549602
0.000619858
0.000610116
0.000592948
0.000566815
0.000531752
0.000516255
0.000540131
0.000577894
0.000614006
0.000648408
0.000688208
0.000736166
0.000781044
0.000821249
0.000852913
0.000875208
0.000884928
0.000883647
0.000872536
0.000854341
0.000831557
0.000806057
0.00077904
0.00075105
0.000722314
0.000692812
0.000662369
0.000630273
0.000597606
0.000565516
0.000651744
0.000642271
0.00062608
0.000601514
0.000566923
0.000528651
0.000527647
0.000560143
0.000600196
0.000639692
0.000682884
0.000737019
0.000787845
0.000832052
0.000865795
0.000888954
0.000898907
0.000897696
0.000886711
0.000868668
0.000846037
0.000820684
0.000793817
0.000766019
0.000737521
0.000708239
0.000677938
0.000645912
0.000613039
0.000580849
0.000683631
0.000673809
0.000657842
0.000634196
0.000600702
0.00055565
0.000528367
0.000546211
0.000586982
0.000631357
0.00067846
0.000737696
0.000794085
0.000841917
0.000877434
0.000901271
0.000911396
0.000910262
0.000899449
0.000881637
0.00085926
0.000834169
0.000807562
0.000780061
0.000751885
0.000722902
0.000692794
0.000660923
0.000627929
0.00059569
0.000715529
0.000704909
0.000688622
0.000665257
0.000632736
0.000589106
0.000544036
0.000539302
0.000575484
0.00062357
0.000674811
0.000738281
0.000799788
0.000850809
0.000887816
0.000912182
0.000922446
0.00092141
0.000910811
0.0008933
0.00087129
0.000846589
0.000820362
0.000793256
0.000765482
0.000736863
0.000707059
0.000675407
0.000642356
0.000610119
0.000747427
0.000735667
0.00071867
0.000695112
0.000663066
0.000620355
0.00056838
0.000541185
0.000566692
0.00061658
0.00067186
0.000738768
0.000804906
0.000858659
0.000896897
0.000921679
0.000932076
0.00093118
0.000920832
0.000903726
0.000882195
0.000857998
0.000832273
0.000805667
0.000778387
0.000750224
0.000720799
0.000689435
0.000656392
0.000624228
0.000779259
0.00076612
0.000748137
0.000724039
0.000691998
0.000649759
0.000596183
0.000552071
0.000561737
0.000610703
0.00066954
0.000739085
0.000809244
0.000865345
0.000904603
0.000929734
0.000940283
0.000939588
0.000929585
0.000913003
0.000892039
0.000868448
0.000843339
0.000817345
0.000790658
0.000763053
0.000734094
0.000703104
0.000670112
0.000638056
0.000811067
0.000796323
0.000777137
0.000752238
0.000719874
0.000677967
0.000624485
0.000569857
0.000561
0.000606273
0.000667776
0.000739046
0.000812656
0.000870743
0.000910849
0.000936305
0.000947053
0.000946662
0.000937151
0.000921188
0.000900879
0.00087799
0.000853613
0.000828342
0.00080235
0.000775418
0.000747045
0.000716533
0.000683615
0.000651689
0.000842851
0.000826382
0.000805819
0.000779918
0.000747045
0.000705928
0.00065234
0.000591481
0.000566057
0.000603642
0.000666505
0.000738599
0.000814947
0.000874728
0.000915528
0.000941326
0.000952388
0.000952416
0.000943531
0.000928311
0.000908769
0.000886687
0.000863156
0.000838724
0.000813544
0.000787402
0.000759761
0.000729853
0.000697026
0.000665234
0.000875239
0.000856718
0.000834522
0.000807426
0.000774022
0.000733278
0.000679234
0.000614846
0.000575446
0.000602871
0.000665762
0.00073815
0.000815813
0.000877118
0.000918468
0.000944664
0.0009562
0.000956803
0.0009487
0.000934372
0.000915744
0.000894596
0.000872035
0.000848576
0.000824342
0.000799115
0.000772363
0.000743263
0.000710797
0.000678977
0.000907829
0.000887996
0.000863874
0.000835546
0.000802882
0.000760595
0.000705367
0.0006386
0.000588288
0.000604257
0.000665706
0.000738059
0.000815026
0.000877099
0.000919303
0.000946022
0.000958242
0.00095963
0.00095251
0.00093927
0.000921755
0.000901715
0.000880294
0.000857977
0.000834851
0.000810692
0.000784999
0.000756917
0.000725181
0.000693126
0.000939112
0.000919359
0.000895834
0.0008672
0.000832036
0.000787541
0.000730799
0.000662149
0.00060364
0.000608049
0.000666671
0.000738451
0.000812706
0.000874755
0.000917433
0.000944759
0.00095787
0.000960342
0.000954473
0.00094263
0.000926489
0.000907812
0.000887796
0.000866882
0.000845111
0.000822247
0.000797798
0.000770886
0.000740061
0.000707769
0.000969168
0.000951142
0.000927993
0.000897092
0.000859545
0.000813549
0.000755782
0.000685783
0.000621336
0.000614993
0.000669399
0.000740116
0.000810895
0.000869827
0.000912233
0.00094002
0.000954091
0.000957924
0.000953607
0.000943329
0.000928957
0.000912099
0.000893848
0.000874664
0.000854633
0.000833456
0.000810561
0.000785002
0.00075519
0.000722877
0.000994831
0.000976226
0.000952246
0.000921459
0.000884788
0.000839305
0.000781836
0.000711559
0.000643172
0.000627278
0.000677134
0.000746332
0.00081368
0.000869289
0.000909789
0.000936618
0.000951185
0.00095618
0.000953461
0.00094493
0.000932154
0.000916524
0.000899136
0.000880611
0.000862307
0.000843178
0.000822231
0.000798367
0.000769819
0.000738697
0.00101294
0.00099474
0.000973233
0.000946305
0.00091241
0.000869257
0.000814064
0.000745912
0.000677156
0.000653572
0.000698478
0.000765215
0.000828934
0.00088104
0.000919185
0.000944627
0.000958977
0.000964541
0.000963062
0.000955873
0.000944413
0.000929916
0.000913388
0.000895507
0.000877195
0.000858124
0.00083762
0.000814916
0.000788708
0.000759066
0.00104543
0.00102789
0.00100769
0.000983423
0.000953438
0.000915546
0.000867303
0.000808033
0.000747422
0.000722172
0.000759827
0.000820657
0.000878132
0.000924643
0.000958451
0.000980707
0.000993111
0.00099802
0.000996655
0.000989999
0.000979272
0.000965528
0.000949644
0.000932224
0.000913941
0.000894746
0.000874194
0.0008517
0.000826124
0.000796434
0.0011102
0.00109645
0.00108198
0.00106597
0.00104713
0.00102362
0.000993798
0.000957727
0.00092218
0.000907205
0.000933006
0.000977038
0.00101878
0.0010523
0.00107594
0.00109057
0.00109779
0.00109963
0.00109665
0.00108961
0.00107935
0.00106651
0.00105175
0.00103544
0.00101806
0.000999168
0.000978298
0.000955545
0.000930479
0.000901583
0.00133459
0.00133478
0.00133552
0.00133561
0.00133411
0.00132982
0.00132273
0.00131377
0.00130593
0.00130129
0.0013053
0.00131639
0.00132814
0.00133782
0.0013432
0.00134652
0.00134718
0.00134686
0.00134525
0.00134319
0.00134065
0.00133776
0.00133459
0.00133129
0.00132758
0.00132054
0.00130881
0.00129565
0.00128365
0.00126915
0.000147197
0.00015671
0.00015805
0.000156315
0.000152769
0.000148205
0.000143089
0.000137714
0.000132252
0.000126876
0.000121688
0.000116879
0.000112564
0.000109024
0.000106319
0.000104472
0.000102925
0.000101274
9.92411e-05
9.67923e-05
9.37425e-05
8.99403e-05
8.53115e-05
7.99444e-05
7.54443e-05
0.000320973
0.000314997
0.000323136
7.77602e-05
8.67626e-05
0.000557372
0.000642454
0.00064434
0.000622117
0.000592754
0.000562295
0.000533072
0.000506416
0.000482803
0.000462847
0.000446284
0.000433714
0.000423907
0.000417183
0.000410434
0.000401399
0.000384393
0.000362849
0.000338852
0.000319464
0.000304067
0.000290732
0.000277004
0.000261354
0.000246307
0.000263865
0.000283727
0.000305622
0.000302265
0.000360315
0.000903652
0.00102948
0.00107166
0.00106749
0.00104309
0.00101003
0.000974024
0.000939565
0.000908751
0.000883685
0.000864383
0.000851702
0.000842628
0.000836499
0.00082705
0.000809391
0.000772835
0.000725097
0.000672011
0.000625135
0.000587067
0.000556709
0.000526008
0.000491544
0.000458147
0.000437101
0.000424588
0.000410597
0.000414713
0.000496076
0.00108329
0.00126801
0.00135376
0.00137541
0.00137317
0.00135331
0.00132567
0.00129779
0.00127379
0.00125714
0.00124809
0.00124683
0.00124809
0.00124862
0.00123979
0.00121531
0.00116101
0.00108868
0.00100757
0.000932903
0.000869578
0.000817005
0.000766557
0.000712099
0.000658077
0.000615363
0.000580717
0.000533835
0.000501649
0.000542221
0.00110031
0.00132016
0.00146368
0.00154813
0.00158599
0.00159095
0.00158242
0.00157216
0.00156633
0.00156957
0.00158195
0.00160197
0.00162063
0.00163268
0.00162717
0.00159753
0.00152768
0.00143306
0.0013265
0.00122626
0.00113892
0.00106476
0.000995116
0.000922058
0.000848863
0.00078825
0.000738168
0.000669199
0.000599579
0.00059197
0.00101175
0.00128104
0.00148073
0.00161077
0.00168858
0.00173273
0.00175435
0.00177129
0.00179346
0.0018268
0.00187012
0.00191956
0.00196142
0.00198819
0.001987
0.00195316
0.00186929
0.00175448
0.00162496
0.0015017
0.0013925
0.00129846
0.00121126
0.00112165
0.00103168
0.000955221
0.000891727
0.000810837
0.000712965
0.000666316
0.000891758
0.00115967
0.00139127
0.00157549
0.00170577
0.00179266
0.00185245
0.00190437
0.00196403
0.00203736
0.0021201
0.00220576
0.00227461
0.0023172
0.00232085
0.00228296
0.00218623
0.00205295
0.00190282
0.00175894
0.0016302
0.00151836
0.00141558
0.00131163
0.00120748
0.00111699
0.00104183
0.000954402
0.000837193
0.000757705
0.000768362
0.000994579
0.00124221
0.00146525
0.00164315
0.00178109
0.00188587
0.00198103
0.00207891
0.00220947
0.0023386
0.0024658
0.00256373
0.00262237
0.00263067
0.00258833
0.00247951
0.00232936
0.0021607
0.00199855
0.00185252
0.00172504
0.00160865
0.0014926
0.00137663
0.00127399
0.00118816
0.00109731
0.000967363
0.000861563
0.000676216
0.000832169
0.00106417
0.00130744
0.00152326
0.00170662
0.00186052
0.00200767
0.0021581
0.00234713
0.00253041
0.00270314
0.00283144
0.0029057
0.00291792
0.00287044
0.00275016
0.00258455
0.00239953
0.0022213
0.00206021
0.00191908
0.00179101
0.00166493
0.00153932
0.00142641
0.00133086
0.00123796
0.00109955
0.000973321
0.000628074
0.000712935
0.000892262
0.00112784
0.00136674
0.00158839
0.00179045
0.00198915
0.00220076
0.00245242
0.00270365
0.00291901
0.00307933
0.00316846
0.00318347
0.0031302
0.00299891
0.00281939
0.00262012
0.00242798
0.002254
0.00210118
0.00196313
0.00182886
0.00169571
0.00157441
0.00147016
0.00137438
0.00123154
0.00108969
0.000631934
0.000659241
0.000764405
0.000957095
0.00119555
0.00144341
0.00168805
0.00193869
0.00220991
0.00253881
0.00286492
0.00311701
0.00330793
0.00341116
0.00342763
0.00336803
0.00322642
0.00303459
0.00282333
0.00261935
0.00243471
0.00227199
0.0021255
0.00198467
0.00184597
0.00171807
0.00160632
0.00150549
0.00136206
0.00120895
0.000693161
0.000676436
0.000713553
0.000833779
0.00103673
0.00129055
0.00156753
0.00186647
0.00220073
0.00260752
0.00300422
0.00329992
0.00351889
0.00363341
0.00364997
0.00358389
0.00343318
0.00323089
0.00300997
0.00279633
0.0026031
0.00243222
0.00227871
0.00213275
0.00199019
0.00185746
0.00173961
0.00163339
0.00149124
0.0013303
0.000815094
0.000774674
0.000755804
0.000786488
0.000923216
0.00115189
0.00144389
0.00178229
0.00218376
0.00265665
0.00312262
0.00346858
0.0037121
0.00383509
0.0038501
0.00377768
0.00361934
0.00340882
0.00318094
0.0029599
0.00275998
0.00258254
0.00242333
0.00227341
0.00212844
0.00199256
0.00187017
0.00175921
0.00161961
0.00145336
0.0009901
0.000931436
0.000879627
0.000842458
0.000879414
0.00105254
0.001333
0.00170106
0.00216014
0.00269062
0.0032275
0.0036239
0.00388656
0.00401515
0.00402743
0.00394903
0.00378478
0.00356885
0.00333686
0.00311089
0.00290601
0.00272346
0.00255986
0.00240724
0.00226091
0.00212334
0.00199801
0.0018835
0.00174749
0.00157788
0.00120664
0.00113416
0.0010589
0.000978487
0.000931311
0.00100173
0.00125368
0.00163465
0.00213223
0.00271544
0.00331819
0.0037666
0.00404068
0.00417193
0.00418082
0.00409729
0.00392918
0.00371085
0.00347789
0.00324982
0.00304167
0.00285545
0.00268879
0.00253456
0.00238803
0.00224972
0.00212301
0.00200644
0.00187498
0.00170355
0.00146011
0.00137548
0.00128061
0.00116969
0.00105944
0.00103076
0.00120609
0.0015768
0.00210413
0.00273729
0.00339235
0.00389205
0.00417171
0.0043031
0.00430861
0.00422146
0.00405227
0.00383464
0.00360339
0.00337604
0.0031672
0.00297896
0.00281042
0.0026556
0.00250974
0.00237182
0.00224496
0.00212795
0.00200189
0.00182999
0.00174304
0.00164721
0.00153469
0.00139804
0.00124421
0.00113695
0.00118874
0.00153706
0.00208452
0.00275784
0.00345355
0.00399509
0.00427614
0.00440567
0.00440846
0.00432007
0.00415297
0.00393935
0.00371271
0.00348859
0.00328146
0.00309381
0.0029248
0.00277031
0.00262597
0.00248964
0.00236356
0.0022477
0.00212779
0.00195651
0.00204491
0.00193897
0.00181076
0.00165215
0.00146641
0.00129546
0.00124956
0.0015234
0.00207506
0.00277686
0.00350585
0.00406992
0.00434941
0.00447586
0.00447724
0.00439083
0.00422924
0.00402319
0.00380428
0.0035865
0.00338349
0.00319813
0.00303082
0.00287809
0.00273608
0.00260244
0.00247833
0.00236498
0.00225192
0.00208224
0.00235183
0.00223781
0.00209678
0.00192016
0.00170938
0.00148935
0.00136513
0.00152421
0.0020744
0.00279465
0.00354163
0.00410792
0.00438575
0.00450884
0.00451062
0.00443006
0.00427777
0.00408309
0.00387566
0.00366756
0.00347069
0.00328986
0.00312604
0.00297694
0.00283841
0.00270866
0.0025879
0.00247844
0.00237297
0.00220578
0.00264676
0.00252822
0.00237884
0.00218924
0.0019588
0.00170114
0.00151071
0.00158175
0.00208918
0.00281269
0.00354789
0.00409654
0.0043781
0.00449814
0.00450255
0.00443205
0.00429327
0.00411471
0.003922
0.0037266
0.0035389
0.0033652
0.00320699
0.00306307
0.00292983
0.00280553
0.00268944
0.00258552
0.00248882
0.00232511
0.00291092
0.00279269
0.00264124
0.00244514
0.00220025
0.00191401
0.00166932
0.00165708
0.00210622
0.00280857
0.0035021
0.00403662
0.00431783
0.0044348
0.00444429
0.00438784
0.00426791
0.0041094
0.0039354
0.00375606
0.00358105
0.00341751
0.00326749
0.00313065
0.0030047
0.00288745
0.00277788
0.00268191
0.00259543
0.00243691
0.00312175
0.0030121
0.00286686
0.00267192
0.00241789
0.00211175
0.0018252
0.00174463
0.0021305
0.00276165
0.00340793
0.00392783
0.0041919
0.00430613
0.00432341
0.00428441
0.00418868
0.0040541
0.00390298
0.00374392
0.00358558
0.00343572
0.00329719
0.00317058
0.00305442
0.00294636
0.00284606
0.00276056
0.0026842
0.00253516
0.00326636
0.00316697
0.00303748
0.00285088
0.00259342
0.00227663
0.0019603
0.00183049
0.0021291
0.00268949
0.00327426
0.0037336
0.00398105
0.00409601
0.00412427
0.00410529
0.004037
0.00393036
0.00380583
0.00367124
0.00353444
0.00340332
0.0032809
0.00316843
0.00306519
0.00296968
0.00288311
0.00280965
0.00274341
0.00260926
0.00334481
0.00325149
0.00313193
0.00295958
0.00270705
0.00238716
0.00205689
0.00188293
0.00206374
0.00255602
0.00304602
0.00343582
0.00367089
0.00379326
0.00383586
0.00383771
0.00379752
0.00372017
0.0036239
0.00351605
0.0034046
0.00329648
0.00319524
0.00310216
0.00301678
0.00293859
0.00286885
0.00281019
0.00275591
0.00264146
0.00334761
0.0032603
0.00314822
0.00298676
0.00274515
0.00243148
0.00209766
0.00187741
0.00193377
0.00232059
0.00272265
0.00305428
0.00327976
0.00341783
0.00347948
0.00349956
0.00348382
0.00343305
0.00336249
0.00327968
0.00319255
0.00310703
0.00302763
0.00295572
0.00289032
0.00283174
0.00278129
0.00273955
0.00270033
0.00260856
0.00326993
0.00319748
0.00309632
0.00294257
0.00271388
0.00241874
0.00209762
0.00184785
0.00180121
0.00205989
0.00239082
0.00268391
0.00290184
0.00305092
0.00313518
0.00316997
0.00317036
0.00313862
0.00308521
0.00301881
0.00294745
0.00287727
0.002814
0.00275904
0.00270839
0.00266419
0.00262799
0.00259969
0.00257273
0.00250048
0.00314411
0.00308868
0.00299876
0.00285893
0.0026591
0.00240643
0.00213136
0.00189865
0.00180126
0.00195528
0.0022163
0.00246947
0.00267083
0.00281693
0.0029101
0.00295076
0.00295855
0.00293779
0.002895
0.00283833
0.0027754
0.00271265
0.00265544
0.00260557
0.00256156
0.00252297
0.00248998
0.00246091
0.00242783
0.00236173
0.00301932
0.00298859
0.00292361
0.00281498
0.00266196
0.00247457
0.00227549
0.00210384
0.00200648
0.00209286
0.00227685
0.00247059
0.00263188
0.0027528
0.00283183
0.00286806
0.00287766
0.00286455
0.00283274
0.00278891
0.00273914
0.00268908
0.00264309
0.00260207
0.00256536
0.00253068
0.00249607
0.00245868
0.00241023
0.00233299
0.00289695
0.00288038
0.00285204
0.00279171
0.0027036
0.00259205
0.00247111
0.00236095
0.00229579
0.00233841
0.00244723
0.00256755
0.00267106
0.00275039
0.0027982
0.00282098
0.00282681
0.00281767
0.00279663
0.00276888
0.00273847
0.00270912
0.00268399
0.00266304
0.00264507
0.00262651
0.00260476
0.00257629
0.00253133
0.00246237
0.00281916
0.00282054
0.00281531
0.0027921
0.00275411
0.00269242
0.00262355
0.00256439
0.00252316
0.00253504
0.00257789
0.00262888
0.00267639
0.00271318
0.00273238
0.0027408
0.00274034
0.00273262
0.00272044
0.0027077
0.00269706
0.00269046
0.00268933
0.00269292
0.00269891
0.00270372
0.0027066
0.00270629
0.0026929
0.00266483
0.000168645
0.000179424
0.000180222
0.000178193
0.000174292
0.000169338
0.000163851
0.000158147
0.000152394
0.000146759
0.000141308
0.000136209
0.000131498
0.000127397
0.00012385
0.000120764
0.000117513
0.000114055
0.000110625
0.000107192
0.000103046
9.72399e-05
8.90914e-05
7.83126e-05
0.00031457
0.000314168
6.83972e-05
7.58852e-05
8.4443e-05
9.32459e-05
0.000652622
0.000796708
0.000836695
0.000827709
0.000802644
0.000773114
0.000743073
0.000713826
0.000685929
0.000659879
0.000634767
0.000611403
0.000587436
0.000563965
0.000536821
0.000505233
0.000465404
0.000431076
0.000408294
0.0003983
0.000394736
0.000386903
0.000364036
0.000323713
0.000314691
0.000358418
0.000318115
0.000254744
0.000340933
0.000426634
0.00104191
0.00128664
0.00140014
0.00144125
0.00144178
0.00142312
0.0013945
0.00136235
0.00132921
0.00129714
0.00126496
0.00123313
0.00119647
0.00115537
0.00110338
0.00103777
0.000952565
0.000874992
0.000816503
0.000779277
0.000755464
0.000732913
0.000684142
0.000602688
0.000530582
0.000519297
0.000497913
0.000411153
0.000492149
0.000632381
0.00129334
0.00163168
0.00178815
0.00187816
0.0019133
0.00192156
0.00191026
0.00189235
0.00187214
0.00185253
0.00183158
0.00180748
0.00177172
0.00172234
0.00165279
0.00155907
0.00143432
0.00131753
0.00122168
0.00115251
0.00110227
0.00105554
0.000981167
0.000864482
0.000744293
0.000696987
0.00066232
0.0005628
0.000592917
0.000731937
0.0014247
0.00177102
0.00201958
0.00216913
0.00223642
0.00228212
0.00229864
0.00230718
0.00231339
0.00232035
0.00232438
0.00231979
0.00229325
0.00224205
0.00216059
0.00204423
0.00188554
0.00173274
0.00160266
0.00150208
0.00142473
0.00135436
0.00125809
0.00111418
0.000956519
0.000876158
0.000831212
0.000725859
0.000699715
0.000808723
0.00145825
0.0017965
0.00207113
0.00227287
0.00242336
0.00252396
0.00257801
0.00262587
0.00267059
0.00271629
0.00275579
0.00277922
0.00276793
0.00271858
0.00262855
0.00249315
0.00230468
0.00211883
0.00195637
0.00182624
0.00172328
0.00163119
0.00151691
0.00135269
0.00116675
0.00105649
0.00100204
0.000899911
0.000833409
0.000901789
0.00139731
0.00173982
0.00205162
0.00230486
0.00250042
0.00264767
0.0027601
0.00286398
0.00295937
0.00305543
0.0031397
0.00319706
0.00320404
0.00315847
0.00306152
0.00290911
0.00269401
0.00247692
0.00228382
0.00212626
0.00199985
0.00188847
0.00175965
0.00158159
0.00137643
0.00123875
0.00117228
0.00107812
0.000989035
0.00102295
0.00130093
0.00162688
0.00195667
0.00224825
0.00249418
0.00269818
0.00286863
0.00302199
0.00319113
0.00334892
0.0034865
0.00358246
0.00360875
0.00356683
0.00346366
0.00329486
0.00305559
0.00280845
0.00258651
0.00240393
0.00225653
0.00212841
0.00198805
0.00180144
0.00158409
0.00142477
0.00134384
0.00125687
0.00115882
0.00117049
0.00118495
0.00146716
0.0018
0.0021249
0.00241641
0.0026738
0.00291025
0.00313473
0.0033611
0.00360608
0.0038036
0.00394055
0.00398779
0.00394727
0.00383747
0.00365239
0.00339051
0.00311456
0.00286609
0.00266114
0.00249534
0.00235293
0.00220378
0.00201243
0.00178862
0.00161369
0.0015181
0.00143536
0.0013362
0.00133303
0.00107218
0.00129687
0.00160916
0.00195273
0.00228675
0.00259928
0.00289913
0.00319973
0.00350737
0.00384459
0.00409586
0.0042745
0.00434239
0.00430298
0.00418405
0.00398288
0.00369902
0.00339629
0.00312417
0.00289981
0.00271827
0.00256393
0.00240813
0.00221505
0.00198969
0.00180425
0.00169518
0.00161385
0.00151789
0.00150173
0.000986369
0.00114854
0.00141779
0.00175773
0.00212243
0.00248791
0.00285472
0.00323175
0.00363193
0.00405723
0.00436411
0.00458308
0.00467227
0.00463482
0.00450404
0.00428668
0.00398119
0.00365477
0.00336257
0.00312204
0.00292739
0.00276336
0.00260227
0.00240991
0.00218708
0.00199523
0.00187534
0.00179296
0.00170268
0.0016741
0.000942673
0.0010503
0.0012648
0.00157349
0.00194712
0.0023564
0.00278952
0.00324587
0.00374112
0.00424225
0.00461164
0.00486842
0.00497737
0.00494122
0.00479684
0.00456304
0.00423741
0.00389148
0.00358338
0.00333005
0.00312475
0.00295296
0.00278759
0.00259777
0.00238044
0.00218606
0.00205796
0.00197321
0.00188783
0.00185018
0.000949077
0.00101351
0.0011793
0.0014382
0.00179197
0.00222615
0.00271835
0.00325723
0.00384061
0.00441075
0.00483635
0.00513326
0.00525555
0.00521986
0.00506057
0.0048108
0.00446818
0.00410801
0.00378878
0.00352598
0.00331244
0.00313419
0.00296546
0.00277946
0.00256974
0.00237618
0.00224215
0.00215472
0.00207284
0.00202795
0.00104759
0.0010728
0.00116497
0.00136834
0.00169224
0.0021212
0.00265681
0.00327453
0.00393104
0.00455448
0.0050428
0.00537455
0.00550176
0.00546644
0.00529289
0.00502827
0.00467422
0.0043061
0.00398069
0.00371172
0.00349227
0.00330832
0.00313709
0.00295571
0.00275495
0.00256489
0.00242658
0.00233711
0.00225728
0.00220588
0.0012397
0.00123844
0.00128065
0.00138343
0.0016349
0.00205257
0.00261465
0.00328788
0.00400278
0.00467042
0.00522691
0.00558007
0.00571057
0.00567557
0.00549046
0.00521411
0.0048557
0.00448678
0.00416038
0.00388856
0.00366517
0.00347653
0.00330352
0.00312643
0.0029355
0.00275091
0.00261086
0.00251976
0.00244042
0.00238298
0.00152783
0.00150655
0.00150814
0.00153619
0.0016605
0.00201044
0.00257408
0.0032875
0.00405824
0.004771
0.0053912
0.00574369
0.00587691
0.00584076
0.0056487
0.00536662
0.00501212
0.00464985
0.00432797
0.00405669
0.00383109
0.0036392
0.00346524
0.0032915
0.00310939
0.00293178
0.0027937
0.00270145
0.00262095
0.00255729
0.00189323
0.00185418
0.00181859
0.00178759
0.00180531
0.00201655
0.00255339
0.00329257
0.00410842
0.00486696
0.0055241
0.00586254
0.00599393
0.00595482
0.00576233
0.00548319
0.00514147
0.00479335
0.00448165
0.00421436
0.00398878
0.00379545
0.00362171
0.00345215
0.00327821
0.00310934
0.00297432
0.00288036
0.00279712
0.00272602
0.00230221
0.00224221
0.00217441
0.0020914
0.00203512
0.00212107
0.00256033
0.00330464
0.00414966
0.00495104
0.00559454
0.00592403
0.00605219
0.00601063
0.00582519
0.00555978
0.0052395
0.00491291
0.00461686
0.00435764
0.00413478
0.00394245
0.0037705
0.0036059
0.00344062
0.00328132
0.00314981
0.00305315
0.00296573
0.0028857
0.00271655
0.00263427
0.00253504
0.00240926
0.00229037
0.0022776
0.00259687
0.0033166
0.00417367
0.00498483
0.00557793
0.00591643
0.00604158
0.006001
0.00582992
0.00559013
0.00529919
0.00500087
0.00472542
0.00447907
0.0042632
0.00407466
0.00390619
0.00374767
0.00359159
0.00344168
0.0033144
0.0032143
0.00312169
0.00303157
0.00310056
0.00299648
0.00286942
0.00270948
0.00254304
0.00246612
0.00266748
0.00332164
0.00416426
0.00492171
0.00549372
0.00582974
0.00595208
0.00591818
0.00576934
0.00556544
0.00531036
0.0050455
0.00479562
0.00456682
0.00436249
0.00418183
0.00401995
0.00386902
0.00372249
0.00358216
0.00345918
0.00335549
0.00325763
0.00315702
0.00342778
0.00330324
0.00315341
0.00296831
0.00276658
0.00263141
0.00272108
0.0032981
0.00405588
0.00477293
0.00533885
0.00565261
0.00577511
0.0057558
0.00563674
0.00547493
0.00526075
0.00503265
0.00481159
0.00460441
0.00441628
0.00424783
0.00409596
0.003955
0.00381934
0.00368904
0.00357121
0.00346511
0.00336347
0.00325362
0.00367959
0.00353954
0.00337393
0.00317051
0.00294189
0.00275681
0.00275893
0.00325338
0.00390802
0.00457064
0.00508194
0.0053757
0.00550723
0.00551226
0.00542859
0.00531049
0.00513904
0.00494795
0.00475704
0.00457356
0.00440403
0.00425088
0.0041129
0.0039853
0.00386302
0.00374471
0.0036341
0.00352877
0.00342658
0.00331097
0.00384601
0.00369765
0.0035229
0.00330717
0.00305843
0.00283257
0.00276437
0.00310552
0.00370408
0.00427517
0.00472284
0.00500567
0.00515655
0.00519745
0.00515132
0.005074
0.00494329
0.00478664
0.00462377
0.00446408
0.00431505
0.00417947
0.00405727
0.00394478
0.00383747
0.00373286
0.00363115
0.00353182
0.00343347
0.00331721
0.00392261
0.00377479
0.00359776
0.00337739
0.00311654
0.00285875
0.00272357
0.00288283
0.00338878
0.00388797
0.00429658
0.0045804
0.00475573
0.00483852
0.00483237
0.00478936
0.00469402
0.00456796
0.00443103
0.00429292
0.00416175
0.00404131
0.00393268
0.00383336
0.0037393
0.00364746
0.00355687
0.00346688
0.00337552
0.00326238
0.00391501
0.00377796
0.00360917
0.00339466
0.00313372
0.00285835
0.00266271
0.00267525
0.0030361
0.00348345
0.00387496
0.00416891
0.00436828
0.00448696
0.00452018
0.00450303
0.00443577
0.00433492
0.00421955
0.00409894
0.00398154
0.0038719
0.00377212
0.00368096
0.00359519
0.00351184
0.00342957
0.00334733
0.00326177
0.00315166
0.00384842
0.0037327
0.00358557
0.00339116
0.00314854
0.00288112
0.00265854
0.00257714
0.00280148
0.00318205
0.00355177
0.00384804
0.00406253
0.00420186
0.00426347
0.0042614
0.00421211
0.00413017
0.00403216
0.00392623
0.00382067
0.00372034
0.00362758
0.00354213