/*--------------------------------*- C++ -*----------------------------------*\
| =========                 |                                                 |
| \\      /  F ield         | OpenFOAM: The Open Source CFD Toolbox           |
|  \\    /   O peration     | Version:  5.0                                   |
|   \\  /    A nd           | Web:      www.OpenFOAM.org                      |
|    \\/     M anipulation  |                                                 |
\*---------------------------------------------------------------------------*/
FoamFile
{
    version     2.0;
    format      ascii;
    class       volScalarField;
    location    "250/air";
    object      alphat;
}
// * * * * * * * * * * * * * * * * * * * * * * * * * * * * * * * * * * * * * //

dimensions      [1 -1 -1 0 0 0 0];

internalField   nonuniform List<scalar> 
243000
(
0.000169191
0.000168501
0.000164292
0.000158517
0.000151832
0.000144539
0.000136802
0.000128937
0.00012105
0.000113791
0.000107071
0.000103257
0.000110275
0.00012758
0.000141829
0.000153992
0.00016322
0.000169728
0.000170982
0.000168712
0.000163952
0.000159948
0.00015594
0.000152085
0.000148541
0.000145686
0.000144432
0.000144806
0.000149395
0.000155675
0.000820884
0.000830574
0.000829356
0.000822009
0.000810887
0.00079582
0.000776968
0.000755839
0.000732884
0.000712048
0.000694205
0.000695278
0.000758375
0.00085491
0.000937875
0.00100708
0.00105687
0.00108873
0.00108706
0.00105988
0.00101598
0.000973427
0.000929094
0.000885714
0.000844097
0.000807038
0.000778063
0.00075699
0.000750918
0.000752255
0.000916772
0.000927015
0.00092507
0.000916617
0.000904189
0.000887766
0.000867699
0.000845679
0.000822283
0.000802012
0.000786495
0.000794413
0.000866854
0.000961409
0.00104446
0.00111406
0.00116412
0.00119624
0.00119608
0.00116995
0.00112623
0.00108253
0.0010367
0.000991704
0.000948757
0.000910847
0.000881213
0.000860182
0.000853518
0.000856494
0.000983296
0.000994763
0.000993223
0.000984923
0.000972291
0.000955541
0.00093523
0.000913118
0.000889902
0.000870522
0.000857304
0.000871929
0.000947601
0.00103869
0.0011193
0.00118708
0.00123555
0.00126651
0.00126748
0.00124323
0.00120113
0.00115781
0.00111202
0.00106685
0.00102386
0.000986143
0.000956617
0.000935993
0.000928752
0.000932787
0.0010351
0.00104763
0.00104664
0.00103868
0.00102608
0.00100928
0.00098901
0.000967068
0.000944234
0.000925817
0.000914766
0.000935588
0.00101137
0.0010984
0.0011756
0.00124073
0.00128708
0.00131649
0.00131848
0.0012965
0.00125662
0.00121445
0.00116947
0.00112485
0.00108246
0.00104541
0.00101635
0.0009962
0.000988446
0.000992942
0.00107906
0.00109227
0.0010916
0.00108384
0.00107117
0.00105424
0.00103398
0.00101219
0.000989702
0.000972145
0.000963002
0.000989334
0.00106369
0.00114635
0.00122001
0.00128234
0.00132658
0.00135459
0.00135757
0.00133806
0.00130069
0.00126006
0.00121632
0.00117267
0.00113123
0.00109507
0.00106658
0.00104689
0.00103875
0.00104331
0.00111876
0.00113232
0.00113163
0.00112375
0.00111075
0.00109347
0.00107301
0.0010512
0.0010289
0.00101201
0.00100451
0.00103556
0.00110765
0.00118602
0.00125628
0.00131597
0.00135839
0.00138532
0.00138935
0.00137239
0.00133769
0.00129892
0.00125669
0.00121423
0.00117386
0.00113864
0.0011108
0.00109156
0.00108326
0.00108775
0.00115631
0.00116984
0.00116875
0.0011604
0.00114672
0.00112877
0.00110785
0.00108576
0.00106346
0.00104697
0.00104092
0.00107576
0.00114516
0.00121949
0.0012866
0.00134397
0.00138497
0.00141123
0.00141635
0.00140205
0.00137008
0.00133335
0.00129279
0.00125169
0.00121253
0.00117834
0.00115126
0.00113257
0.00112433
0.00112871
0.0011929
0.00120599
0.00120415
0.00119494
0.00118021
0.00116127
0.00113957
0.00111693
0.00109436
0.001078
0.00107315
0.00111098
0.00117741
0.00124806
0.00131232
0.00136772
0.0014077
0.00143369
0.00144
0.00142841
0.00139924
0.0013647
0.001326
0.00128647
0.00124867
0.00121564
0.00118945
0.00117144
0.00116345
0.00116772
0.00122914
0.00124131
0.0012384
0.00122795
0.00121181
0.00119155
0.00116878
0.00114531
0.00112221
0.00110563
0.00110174
0.00114179
0.00120519
0.00127248
0.00133417
0.00138793
0.00142726
0.00145338
0.00146097
0.00145215
0.00142586
0.00139369
0.00135705
0.00131932
0.00128306
0.00125136
0.00122624
0.00120904
0.0012015
0.0012057
0.00126516
0.0012759
0.00127162
0.00125959
0.00124173
0.00121987
0.00119578
0.0011712
0.00114728
0.00113013
0.00112697
0.00116853
0.00122894
0.00129317
0.00135252
0.00140493
0.00144392
0.00147052
0.00147947
0.00147343
0.00145016
0.00142055
0.0013862
0.00135048
0.00131602
0.00128585
0.00126199
0.0012458
0.00123888
0.00124302
0.00130067
0.00130952
0.0013036
0.00128969
0.00126988
0.00124621
0.00122057
0.00119463
0.00116962
0.00115156
0.00114895
0.00119132
0.00124884
0.00131024
0.00136746
0.00141874
0.00145764
0.00148501
0.0014954
0.00149211
0.00147204
0.00144514
0.00141333
0.00137988
0.00134745
0.00131905
0.00129669
0.00128168
0.00127554
0.00127962
0.00133509
0.00134162
0.00133384
0.00131787
0.00129597
0.00127035
0.00124299
0.00121547
0.00118908
0.0011698
0.00116764
0.00121005
0.00126489
0.00132364
0.00137889
0.00142921
0.00146818
0.00149655
0.00150844
0.00150785
0.0014911
0.00146712
0.00143806
0.00140713
0.00137699
0.0013506
0.00132996
0.00131634
0.0013111
0.00131508
0.00136755
0.00137145
0.00136167
0.00134356
0.00131952
0.00129191
0.0012627
0.0012334
0.00120537
0.00118467
0.00118279
0.00122467
0.00127697
0.00133321
0.00138659
0.00143605
0.00147519
0.00150473
0.00151818
0.00152019
0.00150683
0.00148592
0.00145984
0.00143167
0.00140406
0.0013799
0.0013612
0.00134912
0.00134488
0.00134871
0.001397
0.00139818
0.00138634
0.00136612
0.00133997
0.00131037
0.00127926
0.00124805
0.00121817
0.00119614
0.00119454
0.00123539
0.00128509
0.0013388
0.00139033
0.00143892
0.00147817
0.00150896
0.00152416
0.00152861
0.00151863
0.00150093
0.001478
0.00145279
0.00142794
0.00140621
0.00138962
0.00137919
0.001376
0.00137957
0.00142234
0.00142089
0.00140705
0.00138481
0.00135668
0.00132513
0.00129209
0.001259
0.00122748
0.0012067
0.00120673
0.00124517
0.00129116
0.00134123
0.0013903
0.00143792
0.00147728
0.00150912
0.00152584
0.00153261
0.00152587
0.0015115
0.00149183
0.00146976
0.00144784
0.0014287
0.00141433
0.00140561
0.00140344
0.00140666
0.00144256
0.00143868
0.00142296
0.00139882
0.00136878
0.00133555
0.00130102
0.0012674
0.00123717
0.0012174
0.00121852
0.00125445
0.00129707
0.00134397
0.00139057
0.00143551
0.00147302
0.00150477
0.00152289
0.00153174
0.00152802
0.00151711
0.00150073
0.00148182
0.00146294
0.00144651
0.00143444
0.00142743
0.00142619
0.00142892
0.00145677
0.00145068
0.00143314
0.00140747
0.00137625
0.00134233
0.00130863
0.00127581
0.00124667
0.00122774
0.00122953
0.00126295
0.00130249
0.00134652
0.00139056
0.00143315
0.0014691
0.00149968
0.00151748
0.00152638
0.00152496
0.00151693
0.0015041
0.0014885
0.00147256
0.00145881
0.00144906
0.0014437
0.00144325
0.00144538
0.00146421
0.00145608
0.00143747
0.00141144
0.0013815
0.00134864
0.00131572
0.00128367
0.0012555
0.00123733
0.00123947
0.00127039
0.0013071
0.00134843
0.00139
0.00143042
0.00146501
0.00149447
0.00151209
0.00152145
0.0015209
0.0015142
0.00150289
0.00148917
0.00147634
0.00146513
0.00145742
0.00145358
0.00145372
0.00145517
0.00146464
0.00145614
0.00143906
0.00141454
0.00138579
0.00135398
0.00132186
0.00129056
0.0012633
0.00124585
0.00124815
0.00127655
0.00131071
0.00134928
0.00138859
0.00142697
0.00146033
0.00148868
0.00150617
0.00151605
0.00151631
0.00151096
0.00150122
0.00148954
0.0014781
0.0014678
0.00146037
0.00145667
0.00145706
0.00145784
0.00146305
0.00145526
0.00143946
0.0014163
0.00138871
0.00135799
0.00132672
0.00129624
0.00126983
0.00125309
0.0012554
0.00128129
0.00131299
0.00134881
0.00138603
0.00142249
0.00145463
0.00148193
0.0014993
0.0015096
0.00151071
0.00150667
0.00149859
0.00148861
0.00147848
0.00146922
0.00146227
0.00145849
0.00145768
0.00145714
0.00145985
0.00145247
0.00143793
0.00141633
0.00138996
0.00136043
0.00133012
0.00130052
0.00127489
0.00125891
0.00126108
0.00128445
0.00131356
0.00134702
0.00138209
0.0014167
0.0014476
0.00147388
0.00149111
0.0015017
0.00150366
0.00150088
0.00149444
0.00148608
0.00147713
0.00146874
0.00146224
0.00145834
0.00145655
0.0014549
0.00145434
0.00144717
0.00143396
0.00141406
0.00138929
0.00136116
0.00133187
0.00130322
0.00127845
0.0012632
0.00126508
0.00128582
0.0013124
0.00134362
0.00137655
0.00140934
0.00143898
0.00146424
0.00148126
0.00149199
0.00149478
0.00149319
0.0014883
0.00148141
0.00147369
0.00146618
0.00146005
0.00145585
0.001453
0.00145032
0.00144592
0.00143909
0.00142715
0.00140919
0.00138633
0.0013599
0.00133192
0.0013043
0.00128045
0.00126589
0.00126742
0.00128535
0.00130958
0.00133838
0.00136922
0.00140018
0.00142851
0.00145274
0.0014694
0.00148013
0.00148367
0.00148319
0.00147976
0.00147423
0.00146764
0.00146094
0.0014551
0.00145044
0.00144649
0.00144278
0.00143409
0.00142788
0.00141738
0.00140141
0.00138069
0.00135627
0.00132992
0.00130373
0.00128098
0.00126699
0.00126781
0.00128333
0.00130506
0.00133128
0.00135994
0.00138906
0.00141602
0.00143911
0.00145523
0.00146576
0.00146991
0.00147047
0.00146833
0.00146408
0.00145856
0.00145258
0.00144691
0.00144167
0.00143657
0.00143176
0.00141838
0.00141315
0.00140447
0.00139067
0.00137222
0.00135007
0.00132581
0.00130138
0.00128009
0.00126687
0.00126698
0.00128004
0.00129918
0.00132274
0.00134889
0.00137607
0.00140149
0.00142325
0.00143856
0.00144864
0.00145317
0.0014546
0.00145353
0.00145045
0.0014459
0.00144052
0.00143488
0.00142897
0.00142269
0.00141674
0.00139854
0.00139478
0.00138844
0.00137717
0.00136138
0.00134189
0.0013201
0.0012982
0.00127914
0.00126714
0.00126657
0.00127735
0.0012939
0.00131462
0.00133783
0.00136238
0.00138589
0.00140581
0.00141979
0.00142905
0.00143363
0.0014356
0.00143527
0.00143308
0.00142929
0.00142438
0.00141867
0.00141199
0.00140443
0.00139734
0.00137522
0.00137402
0.00137099
0.00136334
0.00135138
0.0013359
0.00131844
0.00130064
0.00128514
0.00127566
0.0012752
0.00128409
0.00129801
0.00131518
0.00133445
0.00135497
0.00137503
0.00139179
0.00140323
0.00141074
0.0014145
0.0014161
0.00141578
0.00141383
0.00141031
0.00140548
0.00139941
0.00139174
0.00138267
0.0013743
0.00136763
0.0013721
0.00137535
0.00137448
0.00137007
0.00136276
0.00135372
0.00134422
0.00133609
0.0013317
0.00133279
0.0013397
0.00134941
0.00136059
0.00137258
0.0013852
0.00139751
0.00140784
0.00141444
0.00141843
0.00141988
0.00141972
0.00141794
0.00141491
0.00141035
0.00140433
0.00139676
0.00138737
0.00137639
0.00136631
0.00153712
0.00154881
0.00155904
0.00156561
0.00156975
0.00157137
0.00157106
0.00156891
0.00156547
0.00156101
0.0015561
0.0015517
0.00154733
0.00154307
0.00153804
0.00153428
0.00153247
0.00153202
0.00153241
0.00153482
0.00153853
0.00154277
0.00154689
0.00155038
0.00155262
0.00155313
0.0015515
0.00154752
0.00154149
0.0015351
0.000225593
0.000223972
0.00021725
0.00020877
0.000199143
0.000188798
0.00017806
0.000167717
0.000158217
0.00015146
0.000148312
0.000151895
0.000160181
0.000174061
0.000189049
0.000203397
0.000215001
0.000224355
0.000226118
0.000222426
0.000217318
0.000212867
0.000208743
0.000205072
0.000201854
0.00019947
0.000198755
0.000199674
0.000204027
0.000211118
0.00132063
0.00129411
0.00121153
0.00112199
0.0010392
0.000960853
0.000891615
0.000838356
0.000800329
0.000786531
0.000791217
0.000812865
0.000833388
0.000890569
0.000964077
0.00103492
0.00109059
0.00115173
0.00117756
0.00116272
0.00113693
0.00111228
0.00108435
0.0010573
0.00103223
0.00101566
0.00101124
0.00101585
0.00102551
0.00105957
0.00243032
0.00247455
0.00236837
0.00221838
0.00206552
0.0019158
0.00178082
0.00167624
0.00160136
0.00157637
0.00158791
0.0016291
0.00167213
0.0017799
0.00191846
0.00204404
0.00213459
0.00224133
0.00230556
0.00229746
0.00225789
0.00221176
0.00215436
0.00209541
0.00203979
0.00200082
0.00198469
0.0019909
0.00201213
0.00208245
0.00342108
0.00352854
0.00342414
0.00324299
0.00304245
0.00283942
0.00265292
0.00250549
0.00239889
0.00236567
0.00238576
0.00244327
0.00251316
0.00266424
0.00285557
0.00302184
0.00313437
0.0032751
0.00337792
0.00338601
0.00334167
0.00327936
0.00319607
0.00310709
0.00301977
0.00295616
0.00292946
0.00293743
0.0029646
0.00306535
0.00428984
0.00446467
0.00435903
0.00415468
0.00392596
0.00369046
0.00347032
0.00329364
0.00316707
0.00313502
0.00316334
0.00322846
0.00332142
0.00350733
0.00373522
0.00393038
0.00405924
0.00422407
0.00435993
0.0043877
0.00434345
0.00426886
0.00416338
0.00404731
0.00394133
0.0038647
0.0038302
0.00384023
0.00387061
0.00399522
0.00508612
0.00526532
0.00515663
0.00494961
0.00471128
0.00446011
0.00422177
0.00402903
0.00389135
0.00385969
0.00390007
0.00397743
0.00407984
0.0042912
0.00454111
0.00475485
0.00489746
0.00507762
0.00523763
0.00528615
0.00524617
0.0051611
0.0050466
0.00492682
0.00481571
0.00473404
0.00469194
0.00469003
0.00471057
0.00483521
0.00579055
0.00595468
0.00583972
0.00563875
0.00540274
0.00514844
0.0049046
0.00470703
0.00456624
0.0045382
0.00458249
0.00467402
0.00478721
0.00500285
0.00526335
0.00548642
0.00564115
0.00582941
0.00600262
0.00607016
0.00605077
0.00598231
0.00587251
0.00574014
0.00561339
0.00551449
0.00545452
0.00543987
0.00546144
0.00558334
0.00641509
0.00655003
0.00642639
0.00623671
0.00600912
0.00575869
0.0055183
0.00532437
0.00518713
0.00516238
0.00521142
0.00530141
0.00541909
0.00564352
0.00589658
0.00612145
0.00628477
0.00647902
0.00665677
0.00675249
0.00674258
0.00667635
0.00656459
0.00643034
0.00629968
0.00619577
0.00613142
0.006114
0.00613571
0.00624708
0.00696901
0.00706565
0.00693519
0.00675858
0.00653832
0.00629609
0.00606459
0.00587882
0.00575035
0.00572695
0.00577707
0.00586201
0.00597503
0.00619478
0.00643909
0.00666082
0.00683073
0.00702963
0.00720438
0.00731883
0.00732536
0.00726767
0.00716205
0.00703304
0.00690498
0.00680131
0.00673586
0.00671623
0.00673681
0.00683317
0.00745989
0.00751271
0.00738206
0.00721241
0.00699856
0.00676628
0.00654634
0.00637029
0.00625309
0.00622788
0.00627434
0.0063525
0.00645522
0.00666386
0.00689308
0.00710847
0.00728417
0.0074856
0.007657
0.00778655
0.00780986
0.00776478
0.00767138
0.00755332
0.00743345
0.00733472
0.00727144
0.00725118
0.00726986
0.00734932
0.00789269
0.00790045
0.00777353
0.00760467
0.00739627
0.00717399
0.00696603
0.00680025
0.00669268
0.00666327
0.00670163
0.00677048
0.00686037
0.00705211
0.00726276
0.00746988
0.00765118
0.00785315
0.00802331
0.00816281
0.00820512
0.00817609
0.00809931
0.0079967
0.00788965
0.00779985
0.00774182
0.00772291
0.00773961
0.00780191
0.00826911
0.00823433
0.00811025
0.00793941
0.00773536
0.00752223
0.00732541
0.00716888
0.00706821
0.00703218
0.00705858
0.00711542
0.00719209
0.0073627
0.00755298
0.00775063
0.00793704
0.00813895
0.00831093
0.00845419
0.00851833
0.00850832
0.00845135
0.00836768
0.00827701
0.00819943
0.0081494
0.00813379
0.00814891
0.00819451
0.00858742
0.00851633
0.0083901
0.00821755
0.00801725
0.00781232
0.00762515
0.00747594
0.00737852
0.00733448
0.0073451
0.00738817
0.00745222
0.00759899
0.00776827
0.00795555
0.0081453
0.00834879
0.00852359
0.00866805
0.00875411
0.0087657
0.0087309
0.00866873
0.00859722
0.00853445
0.00849456
0.00848389
0.00849796
0.00852775
0.00884243
0.0087435
0.00861249
0.00843821
0.00824149
0.00804396
0.0078648
0.00772052
0.00762192
0.00756994
0.00756055
0.00758957
0.00764201
0.00776376
0.00791226
0.00808844
0.00827886
0.0084862
0.00866327
0.00881014
0.00891468
0.00895012
0.00893923
0.0089004
0.00885004
0.00880398
0.00877581
0.00877115
0.00878456
0.00879971
0.00902604
0.00891523
0.00877523
0.00859925
0.0084063
0.00821565
0.00804303
0.00790118
0.00779842
0.00773402
0.00770197
0.007719
0.00776057
0.00785844
0.00798729
0.00815198
0.00834068
0.00855192
0.00873215
0.0088841
0.00900022
0.00906173
0.0090761
0.00906177
0.0090338
0.00900578
0.00899032
0.00899232
0.00900524
0.00900658
0.00913857
0.00902413
0.00887464
0.00869775
0.00850908
0.00832509
0.00815776
0.00801523
0.00790474
0.00781898
0.00776022
0.00777141
0.00780218
0.00788142
0.00799365
0.0081473
0.00833259
0.00854482
0.00873253
0.00888997
0.00901271
0.0090998
0.00914043
0.0091512
0.00914622
0.00913698
0.00913472
0.00914363
0.00915608
0.00914441
0.00918254
0.00906229
0.00890683
0.00873032
0.0085463
0.00836883
0.00820567
0.00805657
0.00792131
0.00781637
0.00773489
0.00773751
0.00774955
0.00780654
0.00790312
0.0080556
0.00824887
0.00846605
0.00866089
0.00882662
0.00895461
0.00906338
0.00913079
0.0091669
0.00918503
0.00919488
0.00920602
0.00922173
0.00923379
0.00921023
0.00915573
0.00902899
0.00886808
0.00869175
0.00851163
0.00833919
0.0081656
0.00800123
0.00784841
0.00772937
0.00762973
0.00761953
0.00760936
0.00764232
0.00771988
0.00786342
0.00805629
0.00828654
0.00849905
0.00869006
0.00882707
0.00895068
0.00904488
0.00910691
0.00914813
0.00917724
0.00920215
0.00922448
0.00923647
0.00920339
0.00905915
0.00892466
0.00875975
0.00858362
0.00839109
0.00820507
0.00802398
0.00785219
0.00768973
0.00756277
0.00744997
0.00742187
0.00738991
0.00739818
0.00745426
0.00758341
0.00777009
0.00801096
0.00823261
0.00843573
0.00859894
0.00874826
0.00887636
0.00896765
0.00903252
0.00908123
0.00912177
0.00915122
0.00916401
0.00912713
0.0088997
0.00875895
0.00857785
0.0083872
0.00818801
0.00799396
0.00780599
0.00762367
0.00745462
0.00732306
0.00720047
0.00715235
0.00710062
0.00708445
0.00711826
0.00722964
0.00741186
0.00764049
0.0078612
0.00807381
0.0082608
0.0084344
0.00858428
0.00870777
0.00881166
0.00889582
0.00896095
0.00900201
0.00901701
0.00899119
0.00865629
0.00848972
0.00830512
0.00811327
0.00791086
0.00771226
0.00752226
0.00733393
0.00715527
0.00701925
0.00688751
0.00682001
0.00675133
0.00671228
0.0067248
0.00681675
0.00698381
0.00719661
0.00740998
0.00762341
0.00782586
0.00801845
0.00818553
0.0083318
0.00845524
0.0085583
0.00864104
0.00869649
0.00872489
0.00872595
0.00826327
0.0080821
0.00791069
0.00773805
0.00755274
0.00736502
0.00717834
0.0069873
0.00680158
0.00666044
0.00651846
0.00643443
0.00635256
0.00629417
0.00628754
0.00636004
0.00651019
0.0067015
0.00690017
0.0071057
0.00731452
0.00751791
0.00769973
0.00786179
0.00800704
0.00812716
0.00822112
0.00828714
0.00832766
0.00834838
0.00776327
0.00758562
0.00743165
0.00728128
0.00711998
0.00695729
0.00677771
0.00658535
0.00640282
0.00625291
0.00610158
0.00600558
0.00591519
0.00584317
0.00582112
0.0058757
0.0060076
0.00617457
0.0063525
0.00654236
0.00674716
0.00695295
0.0071439
0.0073147
0.00747229
0.00760643
0.00770998
0.00778227
0.00782739
0.00785902
0.00718029
0.00702237
0.00689362
0.00676547
0.00664116
0.0064923
0.00631913
0.00613613
0.00596349
0.00580365
0.00564602
0.00554302
0.00544992
0.0053732
0.00534051
0.00538196
0.00549353
0.00563585
0.00578824
0.00595602
0.00614619
0.00634494
0.00653709
0.00670977
0.00687197
0.00701228
0.00712123
0.00719581
0.00724253
0.00727855
0.00653847
0.00641286
0.00631338
0.00621919
0.00610718
0.00597455
0.00581925
0.00565049
0.00548349
0.00532034
0.00516449
0.00505785
0.00497003
0.00489954
0.00486345
0.00489667
0.00499217
0.00510845
0.00523128
0.00537268
0.00553682
0.00571738
0.00590007
0.00606694
0.00622604
0.00636569
0.00647462
0.00655093
0.00659681
0.00663099
0.00585919
0.00577481
0.00570278
0.00562851
0.00553632
0.00542117
0.0052834
0.00512958
0.00497281
0.00481736
0.00467452
0.00457486
0.00449804
0.00444383
0.00441623
0.00444769
0.00452814
0.00462344
0.00471959
0.00482699
0.00495458
0.00510179
0.00525864
0.00540987
0.0055533
0.00567908
0.00577952
0.00585259
0.00590191
0.00593804
0.00516275
0.0051102
0.00506786
0.00501652
0.00494245
0.0048455
0.00472927
0.0045979
0.00446316
0.00433149
0.00421569
0.00413535
0.00408
0.00404681
0.00403827
0.00407266
0.00414308
0.00422103
0.0042902
0.00436571
0.00445041
0.00455249
0.00466443
0.00477777
0.00488936
0.00499132
0.0050767
0.00513667
0.00517647
0.00520773
0.00447081
0.00444954
0.00443774
0.00441304
0.00436475
0.004297
0.00421417
0.0041187
0.00402109
0.00392898
0.00385005
0.00379143
0.0037594
0.00374769
0.0037598
0.00381804
0.00389532
0.0039686
0.00402022
0.00406759
0.00410138
0.00413186
0.00417581
0.00423404
0.00429395
0.0043578
0.00441986
0.00445686
0.00447834
0.00449685
0.00380612
0.00383068
0.00385398
0.00386189
0.00384896
0.00381918
0.00377979
0.00373099
0.00367594
0.00362486
0.00358661
0.00357096
0.00357166
0.00358892
0.00362525
0.00369943
0.00378024
0.00385416
0.00390192
0.00393678
0.00394705
0.00394144
0.00392933
0.00391806
0.00390368
0.00388579
0.00386397
0.00384914
0.00382789
0.00381404
0.00358987
0.00360341
0.003602
0.00359667
0.00358854
0.00357978
0.00357059
0.00355583
0.00353976
0.00352612
0.00352052
0.00353124
0.00355701
0.0036047
0.00367459
0.00377661
0.00387973
0.0039744
0.00403787
0.00407643
0.00408013
0.00405632
0.00401343
0.00396124
0.00390426
0.00384581
0.00378706
0.00373296
0.00367792
0.00361681
0.000262591
0.000261227
0.000253617
0.000243999
0.000233059
0.000221372
0.000209471
0.000198539
0.00018915
0.00018357
0.000182498
0.000187182
0.000195904
0.000210201
0.000226151
0.000241835
0.000254624
0.000265517
0.000266003
0.000260047
0.000253475
0.000248131
0.000243789
0.000240452
0.000237726
0.000235725
0.000235108
0.00023589
0.00023953
0.00024665
0.00178126
0.00181936
0.00173207
0.0016199
0.00150802
0.00139916
0.00130314
0.0012312
0.00118123
0.00116693
0.00117662
0.00121043
0.00124864
0.00133194
0.00143759
0.00153292
0.00159688
0.00167431
0.001693
0.00165373
0.00161082
0.00157775
0.00154602
0.0015127
0.00147843
0.00145276
0.00144204
0.00144141
0.00143912
0.00147496
0.00340127
0.00354209
0.00343421
0.00324189
0.0030388
0.00283758
0.00265924
0.00252723
0.00243732
0.0024219
0.00245001
0.00251332
0.00257442
0.0027169
0.00289835
0.00304576
0.00312895
0.00325166
0.00330782
0.00327501
0.00322387
0.00317797
0.00312412
0.00306011
0.00299017
0.00293481
0.00290798
0.00290712
0.00291551
0.0030002
0.00485986
0.00507773
0.00496714
0.0047271
0.00446545
0.00420192
0.00396683
0.00379205
0.0036747
0.00366405
0.00370964
0.00379207
0.00386924
0.00405227
0.00427684
0.0044494
0.00453323
0.00468676
0.00478268
0.00477702
0.00473901
0.004695
0.00463016
0.00454436
0.00444562
0.00436348
0.00431713
0.0043127
0.00433967
0.00446844
0.00617217
0.006423
0.00629098
0.00602887
0.0057387
0.00544286
0.00517601
0.00497734
0.00484454
0.00483865
0.0048977
0.0049904
0.00507613
0.00528287
0.00552723
0.00570996
0.00579426
0.00596895
0.00610212
0.00613106
0.00611457
0.00607775
0.00600852
0.0059085
0.00578831
0.00568409
0.00562443
0.00562163
0.00566041
0.00582051
0.00734079
0.00757489
0.00742288
0.00715212
0.00685864
0.00655143
0.00627289
0.00606747
0.005932
0.00593724
0.00600243
0.00608648
0.00617132
0.00638932
0.00663751
0.00682062
0.00691094
0.00709726
0.00726179
0.00732794
0.00733697
0.00730603
0.00723307
0.00714013
0.00702888
0.00693187
0.00687715
0.0068736
0.00689498
0.00704043
0.00835442
0.00855003
0.00837966
0.00811906
0.00783323
0.00753017
0.00725339
0.00705213
0.00692062
0.00692927
0.00699308
0.00708137
0.00716685
0.00736466
0.00760491
0.0077835
0.00788325
0.00807287
0.0082587
0.00836128
0.00841727
0.0084233
0.00836827
0.00826232
0.0081326
0.00801785
0.00794626
0.00793404
0.00796383
0.00810701
0.00923341
0.00937919
0.00919376
0.00895357
0.0086794
0.0083856
0.00811943
0.00792751
0.00780346
0.00781114
0.00787275
0.00794848
0.00801839
0.00820786
0.00843456
0.00860561
0.00871593
0.00890592
0.00912234
0.00925776
0.00932512
0.00933999
0.00928785
0.00918588
0.00906178
0.00895125
0.0088814
0.00886743
0.00890215
0.00903227
0.00999746
0.0100879
0.00989503
0.00967579
0.00940997
0.00912892
0.008877
0.00869581
0.0085808
0.008583
0.00863746
0.00870298
0.00875263
0.00892758
0.0091377
0.00930379
0.00942474
0.00961487
0.0098392
0.00999905
0.0100858
0.0101093
0.0100666
0.00997549
0.00986262
0.00976088
0.0096962
0.00968395
0.00972086
0.00983409
0.0106631
0.0106945
0.0105099
0.0102978
0.0100397
0.00977162
0.00953416
0.00936264
0.00925653
0.00924897
0.00929265
0.00934676
0.0093781
0.00953567
0.00972782
0.00989066
0.0100248
0.0102171
0.0104431
0.0106216
0.0107207
0.0107533
0.0107228
0.0106463
0.0105483
0.0104592
0.0104035
0.0103959
0.0104339
0.0105297
0.0112418
0.0112164
0.0110448
0.010832
0.01058
0.0103234
0.0100987
0.0099349
0.00983547
0.00981523
0.00984546
0.00988606
0.00990344
0.0100434
0.0102171
0.0103785
0.0105271
0.0107239
0.0109466
0.0111396
0.0112485
0.0112902
0.011273
0.0112128
0.011132
0.0110583
0.0110145
0.0110139
0.0110532
0.0111322
0.0117383
0.0116637
0.0115002
0.0112849
0.0110374
0.0107906
0.0105764
0.0104184
0.0103221
0.0102875
0.0103028
0.010329
0.0103356
0.0104584
0.0106141
0.0107751
0.010939
0.0111414
0.0113583
0.0115633
0.0116812
0.0117321
0.0117285
0.0116857
0.0116233
0.0115663
0.0115362
0.0115445
0.0115859
0.0116491
0.0121503
0.0120387
0.0118756
0.0116582
0.0114146
0.011176
0.0109702
0.0108159
0.01072
0.0106699
0.0106693
0.0106813
0.0106799
0.0107838
0.0109226
0.0110833
0.0112628
0.0114712
0.0116822
0.0118971
0.012024
0.0120848
0.0120951
0.0120698
0.0120266
0.0119872
0.0119712
0.0119892
0.0120335
0.0120823
0.0124687
0.0123407
0.0121701
0.0119502
0.0117105
0.0114794
0.0112803
0.0111278
0.0110303
0.0109639
0.0109468
0.010945
0.010937
0.0110195
0.0111416
0.0113011
0.0114963
0.0117106
0.0119177
0.01214
0.0122767
0.0123483
0.0123729
0.0123654
0.0123414
0.01232
0.0123188
0.0123465
0.0123935
0.0124293
0.0126921
0.0125617
0.012379
0.0121571
0.0119219
0.0116982
0.0115046
0.0113525
0.0112514
0.0111677
0.0111335
0.0111183
0.0111027
0.0111607
0.0112655
0.0114227
0.0116336
0.0118537
0.0120612
0.0122861
0.0124347
0.0125185
0.0125581
0.0125686
0.012564
0.0125604
0.0125742
0.0126122
0.0126624
0.0126861
0.012824
0.0126864
0.0124953
0.0122735
0.0120442
0.0118282
0.0116389
0.0114862
0.0113771
0.0112714
0.0112177
0.0111894
0.0111619
0.0111935
0.0112803
0.0114352
0.0116632
0.0118937
0.0121054
0.0123298
0.0124909
0.0125882
0.0126443
0.0126734
0.0126881
0.0127025
0.0127312
0.0127799
0.0128342
0.0128474
0.0128581
0.0127095
0.0125123
0.0122932
0.0120713
0.0118636
0.0116748
0.0115145
0.0113955
0.0112692
0.0111973
0.0111566
0.0111093
0.0111142
0.0111813
0.0113296
0.0115672
0.011817
0.0120398
0.0122653
0.0124379
0.0125496
0.0126234
0.0126722
0.0127068
0.0127396
0.0127834
0.0128432
0.0129032
0.0129093
0.0127905
0.0126256
0.0124217
0.0122078
0.0119932
0.0117868
0.0115977
0.0114317
0.0113027
0.0111578
0.0110692
0.0110139
0.0109418
0.0109205
0.0109665
0.0111053
0.0113484
0.0116138
0.0118505
0.0120746
0.0122588
0.0123926
0.0124877
0.012557
0.0126123
0.0126645
0.0127246
0.0127966
0.0128653
0.0128721
0.0126225
0.012443
0.0122301
0.0120065
0.0117885
0.011589
0.0114039
0.0112345
0.0110941
0.0109335
0.0108308
0.010753
0.0106577
0.0106116
0.0106357
0.0107636
0.0110119
0.0112871
0.011537
0.0117598
0.01194
0.0120919
0.0122095
0.0123066
0.012391
0.0124693
0.0125483
0.012635
0.0127168
0.0127454
0.0123752
0.0121679
0.0119403
0.0117065
0.0114823
0.0112771
0.0110913
0.0109214
0.0107655
0.0105932
0.0104746
0.0103719
0.0102578
0.0101885
0.0101921
0.0103159
0.0105657
0.0108469
0.0111048
0.0113256
0.0114903
0.0116327
0.0117716
0.0118909
0.011999
0.0120998
0.0121991
0.0123019
0.0124007
0.0124713
0.0119581
0.011712
0.0114907
0.011283
0.0110654
0.0108596
0.0106656
0.0104904
0.0103163
0.0101357
0.00999645
0.00987171
0.00974564
0.00964826
0.0096444
0.00977526
0.0100255
0.0103102
0.0105715
0.0107809
0.0109325
0.0110616
0.0111998
0.0113368
0.0114633
0.0115815
0.0116988
0.0118214
0.0119455
0.012053
0.0113592
0.0111061
0.0109002
0.010709
0.0105201
0.0103255
0.0101272
0.00994099
0.00974952
0.00956063
0.00940304
0.00926095
0.00912508
0.00902195
0.0090224
0.00916306
0.00941516
0.00970258
0.00995974
0.0101507
0.0102857
0.0103938
0.0105065
0.0106473
0.0107892
0.0109299
0.0110698
0.0112103
0.0113507
0.0114832
0.0106081
0.0103736
0.0101905
0.0100154
0.00985217
0.00966685
0.00947416
0.00927817
0.00907461
0.00887748
0.00870751
0.00855498
0.00841537
0.00833148
0.00835469
0.00850918
0.00876816
0.00905819
0.00930308
0.00947103
0.00958232
0.00966231
0.00974142
0.00984282
0.00998768
0.0101371
0.0102923
0.0104479
0.0106009
0.0107473
0.00972332
0.00952633
0.00936702
0.00921722
0.00906812
0.00890004
0.00871314
0.00851437
0.00830741
0.0081066
0.00793216
0.00778197
0.0076574
0.00762197
0.00767849
0.00785243
0.00812404
0.00841559
0.00864494
0.00878726
0.00886747
0.00891333
0.00895099
0.00900175
0.00908945
0.00923221
0.0093875
0.00955011
0.00970896
0.00986101
0.0087341
0.00858081
0.00844597
0.00832687
0.00819786
0.0080439
0.00786796
0.00767578
0.00747576
0.00728314
0.00711259
0.00698476
0.00692251
0.00693449
0.00703313
0.00723664
0.00752356
0.00781799
0.00803316
0.00815039
0.00819524
0.00820079
0.00819236
0.00818633
0.00820692
0.00826842
0.00839025
0.00854863
0.00869997
0.00884949
0.00767791
0.00756498
0.00746108
0.00737141
0.00726943
0.00713742
0.00697958
0.00680647
0.0066227
0.00645215
0.00632402
0.00625836
0.00625175
0.00631096
0.00645805
0.00670228
0.00701076
0.00731004
0.00751757
0.00761607
0.00762451
0.00758332
0.00752246
0.0074594
0.00741286
0.00739592
0.00741855
0.00749162
0.00761382
0.00775646
0.00659919
0.00651509
0.00645443
0.00639655
0.00632285
0.00622455
0.00609815
0.00596332
0.00583779
0.00573119
0.00565972
0.00564201
0.00567973
0.00578911
0.00599271
0.00629043
0.00663062
0.00694762
0.00715882
0.00724862
0.00722378
0.00713097
0.00700606
0.00687816
0.00676458
0.00668199
0.00662236
0.00659957
0.00661268
0.00664971
0.00576083
0.00569266
0.00564368
0.00559488
0.00553617
0.00546701
0.00539122
0.00530342
0.00522147
0.00515845
0.00513179
0.00515624
0.00524191
0.00541335
0.00568864
0.00606474
0.00645893
0.00682151
0.00705936
0.007152
0.00709756
0.00694904
0.0067518
0.00654542
0.00635071
0.00618419
0.00605107
0.00595241
0.0058823
0.00582371
0.00523451
0.00516026
0.00509825
0.00504077
0.0049829
0.00492693
0.00487534
0.00481712
0.00477542
0.00475917
0.00478319
0.00486447
0.00501673
0.00528011
0.00566547
0.00615426
0.00663895
0.00708724
0.00738665
0.00751195
0.00745568
0.00727309
0.0070077
0.00670258
0.00639289
0.00610511
0.00585495
0.00565381
0.00548916
0.00533358
0.00558413
0.00539544
0.00521543
0.00506091
0.00493753
0.00484731
0.00478549
0.0047433
0.00473579
0.00476689
0.00484895
0.00499992
0.00524451
0.00563452
0.00618322
0.00683669
0.00746592
0.00804772
0.0084616
0.0086774
0.00868512
0.00853276
0.00825559
0.0078956