/*--------------------------------*- C++ -*----------------------------------*\
| =========                 |                                                 |
| \\      /  F ield         | OpenFOAM: The Open Source CFD Toolbox           |
|  \\    /   O peration     | Version:  5.0                                   |
|   \\  /    A nd           | Web:      www.OpenFOAM.org                      |
|    \\/     M anipulation  |                                                 |
\*---------------------------------------------------------------------------*/
FoamFile
{
    version     2.0;
    format      ascii;
    class       volScalarField;
    location    "250/air";
    object      epsilon;
}
// * * * * * * * * * * * * * * * * * * * * * * * * * * * * * * * * * * * * * //

dimensions      [0 2 -3 0 0 0 0];

internalField   nonuniform List<scalar> 
243000
(
3.44247
3.95785
4.2585
4.42123
4.46478
4.39481
4.21615
3.95748
3.63485
3.31667
3.00302
2.92248
3.84671
5.98566
8.23629
10.4465
12.1619
13.1789
12.7906
11.537
9.80631
8.3193
6.95513
5.76012
4.75003
3.93831
3.35131
2.93328
2.7781
2.69971
2.48829
2.57842
2.57015
2.50569
2.40799
2.27813
2.12174
1.95557
1.78607
1.64475
1.53519
1.56984
2.0634
2.89811
3.78033
4.64419
5.33835
5.81318
5.76844
5.34932
4.71581
4.14849
3.6056
3.1228
2.70393
2.36659
2.12468
1.96037
1.9141
1.92427
3.46581
3.58572
3.56802
3.47559
3.33973
3.16378
2.95669
2.7408
2.52469
2.35293
2.23575
2.34791
3.06202
4.11314
5.21991
6.28972
7.14008
7.71921
7.69288
7.20043
6.42766
5.70832
5.01097
4.38436
3.83961
3.40129
3.08471
2.87331
2.80753
2.83636
4.27698
4.43255
4.41811
4.31346
4.15375
3.94604
3.70306
3.45115
3.2013
3.0105
2.89761
3.10613
3.98223
5.17863
6.42349
7.61383
8.54517
9.17233
9.16727
8.64848
7.80335
6.98825
6.18779
5.46075
4.82667
4.31612
3.9447
3.69924
3.61454
3.66064
4.99201
5.1815
5.17375
5.06202
4.88429
4.65174
4.3809
4.10113
3.82572
3.62325
3.52237
3.8352
4.82718
6.11711
7.4435
8.7006
9.67104
10.3173
10.3369
9.82167
8.94545
8.07252
7.20357
6.40567
5.70732
5.14373
4.73081
4.45889
4.35617
4.41433
5.66063
5.87889
5.87574
5.75658
5.56113
5.30512
5.00912
4.70503
4.40815
4.19768
4.11302
4.53157
5.60438
6.94968
8.32297
9.61585
10.6044
11.2589
11.3066
10.8146
9.93396
9.02824
8.11443
7.26643
6.52055
5.91653
5.47018
5.17595
5.05688
5.12219
6.31752
6.55922
6.55509
6.42423
6.2074
5.92532
5.60304
5.27471
4.95745
4.74006
4.67353
5.19394
6.32024
7.6952
9.09399
10.406
11.4049
12.0667
12.1461
11.6916
10.8253
9.90555
8.96305
8.07835
7.2956
6.65881
6.18472
5.8719
5.73999
5.81005
6.98809
7.2469
7.23409
7.08469
6.83998
6.52641
6.17406
5.81906
5.48047
5.2553
5.20886
5.8205
6.97958
8.36747
9.77847
11.1016
12.1101
12.7842
12.8992
12.4939
11.6546
10.7347
9.77592
8.86571
8.05469
7.3918
6.89544
6.56776
6.42681
6.5005
7.69007
7.95768
7.92776
7.75102
7.4698
7.11765
6.72971
6.34394
5.9813
5.74531
5.71858
6.40981
7.58504
8.97513
10.3896
11.7208
12.7421
13.4354
13.5905
13.2442
12.4431
11.5354
10.5721
9.64654
8.81544
8.13262
7.61929
7.28071
7.13464
7.21197
8.43422
8.69964
8.64396
8.42951
8.10219
7.70336
7.27351
6.85177
6.46112
6.20939
6.20149
6.95854
8.13713
9.52166
10.9333
12.2713
13.3098
14.0303
14.2299
13.9515
13.1996
12.3166
11.3606
10.4303
9.58778
8.89206
8.36766
8.02279
7.8758
7.9573
9.22374
9.4735
9.38271
9.11967
8.73658
8.28309
7.80476
7.34134
6.91775
6.64458
6.65384
7.46139
8.63325
10.0057
11.4091
12.7528
13.8123
14.568
14.8165
14.6133
13.9224
13.0769
12.1411
11.2176
10.3739
9.67358
9.14509
8.79964
8.65639
8.74246
10.0529
10.2718
10.136
9.81412
9.36658
8.85132
8.3185
7.8076
7.34566
7.04501
7.06906
7.91077
9.06793
10.4219
11.8114
13.159
14.2417
15.039
15.3402
15.2176
14.6009
13.8059
12.9043
12.0009
11.1675
10.4726
9.94856
9.60924
9.47476
9.5653
10.9062
11.0781
10.8878
10.4988
9.98025
9.39784
8.80545
8.24181
7.73592
7.4021
7.43782
8.29723
9.43255
10.7612
12.131
13.4789
14.5848
15.4284
15.7847
15.7462
15.2163
14.4853
13.6328
12.7637
11.9541
11.2761
10.7663
10.4408
10.3202
10.4143
11.7576
11.8679
11.6155
11.154
10.5605
9.90799
9.25248
8.6317
8.0768
7.70556
7.74849
8.61105
9.71709
11.013
12.3563
13.6991
14.8253
15.7176
16.1302
16.1769
15.7439
15.0902
14.3021
13.4828
12.7115
12.0627
11.5779
11.2742
11.1722
11.2681
12.571
12.6101
12.2909
11.755
11.0863
10.3633
9.6432
8.96261
8.35518
7.94831
7.99646
8.84732
9.91406
11.1674
12.4763
13.8053
14.9444
15.8842
16.3566
16.4859
16.1558
15.592
14.8829
14.1287
13.4109
12.8043
12.3552
12.0807
12.001
12.0957
13.305
13.2691
12.882
12.2736
11.533
10.7423
9.95875
9.21994
8.56547
8.16838
8.24234
9.05047
10.0508
11.232
12.4927
13.7962
14.94
15.9152
16.442
16.6506
16.4248
15.9611
15.3436
14.6689
14.0187
13.4672
13.0636
12.8248
12.7694
12.8586
13.9161
13.8069
13.3545
12.6785
11.8709
11.0194
10.1854
9.41746
8.77985
8.39504
8.48479
9.24819
10.1874
11.3031
12.4965
13.7252
14.8151
15.8002
16.3728
16.6522
16.5271
16.172
15.6544
15.07
14.4996
14.0147
13.6656
13.4671
13.4357
13.5143
14.3641
14.1858
13.6726
12.9402
12.0881
11.2028
10.3775
9.61801
8.9929
8.61776
8.71534
9.43275
10.3142
11.3676
12.4943
13.6571
14.701
15.6374
16.1978
16.494
16.4537
16.1959
15.7917
15.3066
14.8209
14.4103
14.1223
13.9672
13.9572
14.0201
14.6143
14.3709
13.8195
13.0637
12.239
11.3752
10.5588
9.8078
9.19342
8.82734
8.92674
9.59674
10.4229
11.4147
12.478
13.5793
14.5807
15.4734
16.0255
16.3363
16.3199
16.1085
15.7582
15.3555
14.9644
14.6272
14.3987
14.2869
14.2934
14.3371
14.6498
14.3812
13.8732
13.1623
12.3647
11.5231
10.7177
9.97622
9.37266
9.01597
9.11274
9.73397
10.5074
11.434
12.4385
13.4814
14.441
15.2926
15.838
16.1605
16.1709
16.006
15.7107
15.3674
15.0215
14.7134
14.4958
14.4035
14.4174
14.4408
14.6043
14.3634
13.8921
13.2216
12.4529
11.6361
10.8453
10.1163
9.52426
9.17764
9.26867
9.83947
10.5595
11.4198
12.3683
13.3545
14.2711
15.0835
15.6216
15.9519
15.9906
15.8705
15.6327
15.3394
15.0364
14.7623
14.5616
14.4619
14.4407
14.425
14.5105
14.2871
13.8541
13.2298
12.494
11.707
10.936
10.2228
9.64282
9.30809
9.39034
9.90817
10.5694
11.3718
12.2612
13.1909
14.0632
14.8371
15.3652
15.6993
15.766
15.6883
15.5043
15.2612
14.997
14.7523
14.5686
14.4617
14.4112
14.3628
14.3475
14.1342
13.7442
13.1721
12.482
11.7315
10.9845
10.2912
9.72609
9.40399
9.47448
9.93298
10.5381
11.2826
12.1123
12.9846
13.8109
14.5458
15.0598
15.3929
15.4857
15.4472
15.3129
15.1161
14.8923
14.6773
14.5071
14.3898
14.3084
14.2304
14.0986
13.8992
13.5508
13.0395
12.4058
11.7028
10.9892
10.3193
9.77263
9.46296
9.51918
9.9156
10.4654
11.1484
11.9174
12.7307
13.5088
14.2027
14.6975
15.0242
15.1394
15.1363
15.0468
14.8937
14.7072
14.5199
14.3598
14.2293
14.1169
14.0102
13.7521
13.5745
13.2741
12.8252
12.2567
11.6111
10.9415
10.3066
9.78404
9.48483
9.51985
9.86182
10.3512
10.9674
11.6741
12.4266
13.154
13.8032
14.2721
14.5861
14.7174
14.7453
14.6946
14.5823
14.4309
14.268
14.1147
13.969
13.8253
13.6892
13.2991
13.1535
12.9114
12.5305
12.0312
11.4514
10.8393
10.2493
9.76008
9.47572
9.49054
9.77638
10.2042
10.7515
11.387
12.0766
12.7485
13.3468
13.7816
14.0751
14.214
14.2657
14.246
14.1697
14.05
13.9082
13.758
13.5966
13.4225
13.2576
12.7382
12.6375
12.4666
12.1625
11.7427
11.2388
10.6944
10.1657
9.72873
9.46828
9.46548
9.70005
10.0674
10.5423
11.0983
11.7102
12.3182
12.8528
13.2399
13.5025
13.6378
13.7021
13.7035
13.6536
13.5583
13.4321
13.2821
13.1035
12.9002
12.7097
12.091
12.0619
11.9837
11.7819
11.4681
11.071
10.6334
10.2032
9.84256
9.63232
9.62663
9.82128
10.1322
10.528
10.9871
11.4952
12.0085
12.4508
12.7615
12.9706
13.0787
13.1297
13.1289
13.0863
13.0006
12.8786
12.7224
12.5233
12.2877
12.0709
11.8343
11.9512
12.0355
12.009
11.8853
11.6846
11.4403
11.1897
10.9812
10.8725
10.8991
11.0631
11.2972
11.5747
11.8804
12.2118
12.5426
12.8262
13.0124
13.1279
13.1727
13.1741
13.133
13.0576
12.9422
12.787
12.5897
12.3458
12.062
11.8031
16.5688
16.9448
17.2789
17.5032
17.633
17.6729
17.6452
17.5548
17.4258
17.2681
17.1016
16.954
16.811
16.6739
16.5158
16.4025
16.354
16.3495
16.3719
16.4556
16.5768
16.7172
16.8548
16.9734
17.0528
17.0749
17.0258
16.8995
16.7077
16.5046
8.20325
9.34237
9.89848
10.1524
10.1261
9.84624
9.3512
8.77116
8.19025
7.92199
8.11106
9.35048
11.4944
15.0906
19.4611
24.0434
27.7728
30.4173
29.571
26.4515
22.8646
19.6503
16.7317
14.1686
11.9572
10.1317
8.74375
7.69428
7.08768
6.75489
5.16366
5.51035
5.84696
6.07728
6.17281
6.14829
6.0216
5.84706
5.67809
5.68083
5.96784
6.83913
8.16083
10.1045
12.3137
14.4963
16.2716
17.413
16.9131
15.3511
13.5929
11.9692
10.4856
9.14907
7.96323
6.94203
6.1373
5.51052
5.18489
5.01019
4.66055
4.75861
4.99478
5.19361
5.31927
5.36892
5.35654
5.31074
5.27184
5.36541
5.69942
6.44683
7.49202
8.93245
10.4991
11.9922
13.2139
13.9294
13.5286
12.4225
11.1818
10.0117
8.9334
7.94767
7.06132
6.28123
5.65447
5.15129
4.87634
4.72249
4.50773
4.54024
4.72418
4.89082
5.01415
5.08619
5.1197
5.13421
5.16108
5.30395
5.65506
6.31217
7.18429
8.34429
9.57052
10.7082
11.636
12.1381
11.8089
10.9583
9.99484
9.06775
8.20373
7.40403
6.68026
6.03039
5.4857
5.03969
4.77618
4.6213
4.51936
4.52153
4.68038
4.82978
4.93811
5.00704
5.05357
5.09305
5.14806
5.30603
5.65756
6.25142
7.00539
7.98179
8.99771
9.92449
10.6669
11.0543
10.7899
10.1112
9.3274
8.55669
7.82873
7.14602
6.50498
5.91998
5.42117
5.00749
4.74548
4.58868
4.61761
4.65632
4.79823
4.91995
5.00124
5.05203
5.09211
5.13469
5.19913
5.36541
5.69784
6.23082
6.91336
7.76343
8.64514
9.4445
10.0685
10.4
10.1982
9.64477
8.98489
8.32514
7.67537
7.04275
6.44306
5.89407
5.42551
5.04669
4.79681
4.65622
4.82364
4.90576
5.03342
5.12436
5.17077
5.19254
5.21215
5.2426
5.30286
5.46498
5.77789
6.26252
6.88172
7.66271
8.45856
9.18463
9.73885
10.0496
9.91224
9.45902
8.87003
8.25939
7.65403
7.07208
6.51465
6.00193
5.56123
5.20375
4.95261
4.82423
5.12994
5.25462
5.36713
5.42294
5.42872
5.41442
5.40361
5.41087
5.4569
5.60857
5.90567
6.35549
6.93017
7.65031
8.40516
9.09438
9.6153
9.92448
9.851
9.46826
8.95227
8.39955
7.83661
7.28121
6.74181
6.24191
5.80751
5.45515
5.20416
5.09077
5.53114
5.69095
5.78393
5.79942
5.76285
5.7067
5.65832
5.63547
5.65908
5.79647
6.07265
6.4961
7.04389
7.73223
8.45892
9.13458
9.64657
9.96691
9.95878
9.65052
9.19049
8.68221
8.14912
7.61037
7.08013
6.58511
6.15191
5.80161
5.55216
5.45457
6.01849
6.20116
6.26672
6.24118
6.15985
6.05793
5.96716
5.90979
5.90539
6.02278
6.27733
6.67935
7.21106
7.88097
8.59485
9.27128
9.79026
10.132
10.184
9.94848
9.54338
9.07516
8.56716
8.04139
7.5166
7.02297
6.58872
6.23868
5.99179
5.90876
6.57803
6.76774
6.79799
6.732
6.60441
6.45498
6.31934
6.22408
6.18952
6.2812
6.51352
6.89831
7.41979
8.07949
8.78899
9.47385
10.0096
10.3796
10.4863
10.3235
9.9747
9.54624
9.06411
8.55222
8.03335
7.54105
7.10588
6.7559
6.51228
6.44078
7.19006
7.36829
7.3592
7.25285
7.07937
6.88279
6.70193
6.5673
6.50141
6.56281
6.77268
7.14302
7.65697
8.31056
9.01938
9.71543
10.2729
10.6741
10.8306
10.7391
10.4496
10.0633
9.61105
9.1172
8.60784
8.11929
7.68533
7.33646
7.09661
7.03236
7.82945
7.97694
7.93047
7.78354
7.56625
7.32487
7.10032
6.92657
6.82919
6.85749
7.04487
7.40267
7.91018
8.55914
9.2682
9.97462
10.5543
10.9862
11.1873
11.1631
10.936
10.5952
10.1784
9.70843
9.21437
8.73384
8.30402
7.95788
7.72183
7.6596
8.46757
8.57111
8.48905
8.30361
8.04638
7.76432
7.4994
7.28855
7.16082
7.15624
7.32172
7.6687
8.17099
8.81579
9.52498
10.2383
10.8364
11.2951
11.5352
11.5696
11.4067
11.1145
10.738
10.2981
9.8258
9.35858
8.93655
8.59443
8.36106
8.29449
9.07726
9.1294
9.01413
8.79414
8.50242
8.18541
7.88553
7.6421
7.48707
7.45511
7.60093
7.93971
8.43971
9.08181
9.79151
10.5062
11.1142
11.5912
11.8627
11.9443
11.8423
11.6003
11.2668
10.8616
10.4165
9.96769
9.55711
9.22015
8.98754
8.90927
9.6344
9.63382
9.48875
9.23972
8.92048
8.57623
8.24999
7.98237
7.80958
7.76063
7.89381
8.23069
8.73493
9.37864
10.0912
10.7988
11.4011
11.8806
12.1718
12.2869
12.2361
12.0414
11.7497
11.3806
10.9656
10.5387
10.1421
9.81094
9.57653
9.47946
10.1186
10.0742
9.9022
9.63131
9.29368
8.93324
8.59532
8.31888
8.13651
8.07587
8.2031
8.54731
9.06605
9.72194
10.4453
11.1459
11.7341
12.1945
12.4867
12.6153
12.5985
12.4405
12.1837
11.8473
11.461
11.0561
10.6738
10.3477
10.1082
9.98587
10.5241
10.4447
10.2533
9.97133
9.63061
9.27138
8.93526
8.65822
8.472
8.40642
8.53787
8.90005
9.44418
10.1231
10.8665
11.566
12.139
12.5714
12.853
12.9756
12.966
12.8228
12.585
12.2698
11.9042
11.5161
11.1447
10.8201
10.5708
10.4178
10.8577
10.7558
10.5599
10.2854
9.95776
9.61
9.28198
9.01052
8.82757
8.76539
8.91423
9.30671
9.88739
10.5998
11.3723
12.076
12.6324
13.0374
13.3043
13.4131
13.3911
13.2411
12.9997
12.6839
12.3207
11.9344
11.5636
11.2323
10.9655
10.7772
11.1516
11.0474
10.8652
10.6094
10.3
9.96911
9.65574
9.39613
9.224
9.17499
9.35623
9.7922
10.4202
11.1771
11.985
12.6966
13.2355
13.616
13.8657
13.9559
13.9106
13.7393
13.4773
13.1438
12.7634
12.3619
11.9715
11.6164
11.3188
11.0893
11.4674
11.3695
11.2047
10.9719
10.6866
10.3793
10.0878
9.84706
9.69386
9.66911
9.89806
10.3904
11.0754
11.8859
12.734
13.4531
13.9749
14.334
14.5656
14.6355
14.5597
14.3566
14.0611
13.6929
13.2784
12.8441
12.4206
12.0283
11.6871
11.4113
11.8442
11.7553
11.6139
11.4115
11.1587
10.884
10.6229
10.4095
10.2845
10.2979
10.5889
11.1494
11.899
12.7683
13.6555
14.3782
14.8824
15.2229
15.4365
15.4857
15.3768
15.1367
14.801
14.3861
13.9213
13.4357
12.9599
12.5144
12.1171
11.7882
12.3298
12.2527
12.1434
11.9821
11.7736
11.5435
11.3244
11.1507
11.0662
11.1382
11.5041
12.1429
12.9607
13.8838
14.8025
15.5181
16
16.3227
16.5164
16.5448
16.4042
16.1286
15.7516
15.287
14.7606
14.2069
13.6583
13.1364
12.6639
12.2692
12.9913
12.9303
12.866
12.7627
12.6175
12.4502
12.2923
12.1783
12.1555
12.3113
12.7685
13.4938
14.3748
15.3297
16.2622
16.945
17.393
17.6908
17.8565
17.8605
17.6921
17.3895
16.9781
16.4678
15.8816
15.2465
14.6042
13.9804
13.4055
12.9255
13.9283
13.8969
13.9038
13.8886
13.838
13.766
13.7033
13.6835
13.7643
14.0347
14.6028
15.4175
16.3426
17.2873
18.1893
18.7869
19.1715
19.42
19.5362
19.5022
19.3124
18.9993
18.5701
18.0259
17.3854
16.6717
15.9218
15.167
14.4597
13.8645
15.3165
15.3554
15.497
15.632
15.7359
15.8184
15.9126
16.0559
16.2996
16.7231
17.412
18.3025
19.229
20.0811
20.8388
21.2522
21.5067
21.6539
21.6795
21.5867
21.3861
21.0863
20.6691
20.116
19.4345
18.6465
17.7903
16.8941
16.0205
15.2705
17.5699
17.8031
18.1972
18.5982
18.9674
19.3124
19.6692
20.0663
20.5297
21.1218
21.8981
22.7891
23.5761
24.1376
24.4531
24.4392
24.3988
24.3225
24.1942
24.073
23.9688
23.8226
23.5388
23.0526
22.3784
21.5322
20.5648
19.5146
18.4606
17.5452
21.4204
22.1038
22.9779
23.8388
24.6362
25.3699
26.0822
26.7586
27.388
27.9953
28.5338
28.9141
28.9413
28.5705
27.7811
26.8186
26.192
25.7022
25.3791
25.3141
25.5377
25.935
26.2488
26.3391
26.1633
25.6453
24.8093
23.6841
22.4608
21.3776
25.9578
27.485
29.1395
30.6384
31.8985
32.8814
33.58
33.9303
33.9274
33.592
32.8295
31.6493
30.2052
28.5283
26.6504
25.0935
24.0924
23.3407
22.8628
22.7891
23.0939
23.679
24.4393
25.2935
26.0854
26.665
26.874
26.6097
26.0837
25.6019
21.9324
23.5981
25.338
26.9216
28.1795
28.9896
29.3167
29.1189
28.454
27.4135
26.0885
24.6797
23.1604
21.56
19.8513
18.5271
17.6411
16.9951
16.6
16.5181
16.7063
17.1047
17.6563
18.3266
19.0351
19.6919
20.2255
20.6484
20.9477
21.3421
12.9911
14.88
15.8056
16.2571
16.2748
15.9129
15.2651
14.5883
14.0293
14.1278
15.0893
17.3724
20.8245
26.3467
33.0891
40.1691
45.8786
50.1633
47.914
42.0996
36.1804
31.0906
26.6731
22.8778
19.5678
16.7443
14.4869
12.6997
11.4907
10.8048
6.81122
7.37611
7.91598
8.29133
8.46613
8.47774
8.35304
8.19013
8.06901
8.2123
8.75285
9.8497
11.6013
14.079
16.9429
19.7953
22.1196
23.5276
22.3619
19.9369
17.5109
15.3895
13.5781
12.0098
10.6133
9.35832
8.30508
7.43639
6.93257
6.62211
5.70958
5.96254
6.32841
6.62087
6.79565
6.86704
6.85691
6.81165
6.79374
6.95228
7.39268
8.23355
9.52893
11.2573
13.2065
15.1348
16.7309
17.5466
16.6768
15.0021
13.3253
11.8538
10.6082
9.53232
8.5734
7.69975
6.95124
6.32178
5.94663
5.7194
5.33056
5.49344
5.77738
6.01157
6.16203
6.23817
6.26054
6.26129
6.29226
6.47347
6.87571
7.59136
8.63731
10.0013
11.5255
13.0075
14.2211
14.746
14.0479
12.7537
11.4426
10.284
9.30301
8.45618
7.70169
7.01142
6.41356
5.90217
5.56495
5.36913
5.23441
5.38375
5.6338
5.82098
5.93691
5.99457
6.01801
6.03269
6.08386
6.27757
6.65972
7.29498
8.19252
9.34661
10.6235
11.8431
12.805
13.1688
12.59
11.5328
10.4486
9.48291
8.65844
7.94406
7.30641
6.72145
6.20339
5.75335
5.43921
5.26217
5.32828
5.50211
5.72393
5.87227
5.9457
5.97505
5.98355
5.99369
6.04742
6.23761
6.6034
7.19872
8.00939
9.03268
10.1592
11.2172
12.0063
12.2843
11.7982
10.8992
9.96613
9.13366
8.41379
7.76395
7.17311
6.63018
6.14822
5.74071
5.46518
5.32859
5.5892
5.79278
5.98701
6.09159
6.12158
6.11536
6.10041
6.09677
6.14549
6.33332
6.68776
7.23905
7.9859
8.95278
9.98936
10.9465
11.6204
11.8584
11.4549
10.6678
9.81485
9.04472
8.38095
7.79885
7.26549
6.76938
6.32462
5.94628
5.67695
5.55633
5.9907
6.21985
6.38261
6.43939
6.42539
6.38225
6.33837
6.3163
6.35561
6.53824
6.87973
7.4113
8.13022
9.04995
10.0321
10.9282
11.5278
11.7502
11.4
10.7017
9.94329
9.243
8.63165
8.08495
7.57438
7.09508
6.6624
6.29733
6.03131
5.92516
6.51219
6.756
6.88052
6.88772
6.83229
6.75065
6.67538
6.6326
6.65895
6.83389
7.16451
7.67899
8.38522
9.28067
10.2295
11.0845
11.6378
11.8582
11.5776
10.9599
10.268
9.62413
9.05117
8.52924
8.03437
7.56513
7.13813
6.77812
6.51291
6.41725
7.12837
7.37189
7.44989
7.41307
7.31688
7.19737
7.09069
7.02644
7.03734
7.20198
7.52276
8.02474
8.72466
9.60881
10.5356
11.3614
11.8831
12.1082
11.893
11.354
10.7272
10.1338
9.5947
9.09469
8.6136
8.15204
7.72759
7.36801
7.101
7.00993
7.81097
8.03471
8.06164
7.98695
7.85304
7.69863
7.56243
7.47695
7.4715
7.62328
7.93482
8.42908
9.12495
10.0037
10.9134
11.7141
12.2133
12.4442
12.2911
11.83
11.268
10.7238
10.2192
9.74267
9.276
8.82263
8.40066
8.04004
7.76972
7.67654
8.52707
8.70785
8.6887
8.58093
8.41422
8.22976
8.06766
7.96209
7.94124
8.07804
8.38158
8.8716
9.56659
10.4409
11.3348
12.11
12.5901
12.8247
12.7284
12.3424
11.8452
11.3507
10.8836
10.4342
9.98571
9.54057
9.12231
8.76102
8.48758
8.3861
9.23886
9.35735
9.30519
9.16807
8.97484
8.76677
8.58366
8.46087
8.42643
8.54829
8.84653
9.33642
10.0347
10.9045
11.7835
12.5301
12.9894
13.2224
13.1749
12.8574
12.4232
11.9782
11.5509
11.1325
10.7068
10.2743
9.85734
9.49428
9.21671
9.10281
9.90507
9.96653
9.88571
9.72452
9.51233
9.28826
9.09039
8.95516
8.91063
9.02114
9.31943
9.81543
10.5238
11.3911
12.258
12.9712
13.4036
13.6263
13.6156
13.3552
12.9789
12.5796
12.1919
11.8064
11.4067
10.9906
10.5786
10.2098
9.92116
9.78707
10.5117
10.5157
10.4102
10.2319
10.0095
9.77816
9.57363
9.43345
9.38509
9.4933
9.80165
10.314
11.0442
11.9154
12.7757
13.4494
13.8437
14.0429
14.0521
13.833
13.5036
13.1417
12.7884
12.434
12.0605
11.6621
11.2572
10.8837
10.5819
10.4174
11.0372
10.9937
10.8668
10.6799
10.4573
10.2294
10.0291
9.89554
9.85091
9.96122
10.2853
10.8217
11.5782
12.4537
13.308
13.9493
14.3175
14.4937
14.5039
14.3056
14.0062
13.6683
13.3376
13.0066
12.6545
12.2716
11.8726
11.4935
11.1759
10.9763
11.4753
11.3947
11.2539
11.0695
10.8588
10.6489
10.4632
10.3392
10.304
10.4271
10.7756
11.3434
12.1284
13.0076
13.8535
14.458
14.8
14.9601
14.9785
14.8022
14.5139
14.1811
13.8553
13.5328
13.1908
12.8152
12.4167
12.0279
11.6903
11.452
11.8342
11.7279
11.5852
11.4185
11.2326
11.0447
10.8805
10.7751
10.7574
10.9052
11.2888
11.8943
12.7089
13.5906
14.4255
14.9872
15.2963
15.4363
15.4594
15.3071
15.0408
14.7113
14.3767
14.0417
13.6913
13.3083
12.8988
12.4909
12.1261
11.8464
12.1404
12.0237
11.8937
11.7513
11.5964
11.4397
11.3056
11.2271
11.2372
11.422
11.8512
12.5005
13.3463
14.2268
15.0466
15.557
15.8208
15.9349
15.9579
15.8278
15.5892
15.2631
14.9161
14.5617
14.192
13.788
13.3506
12.9082
12.504
12.1794
12.4408
12.3209
12.2124
12.1055
11.9905
11.8734
11.7776
11.7333
11.7849
12.0177
12.5023
13.201
14.0766
14.9521
15.748
16.1851
16.396
16.4741
16.4896
16.3793
16.1707
15.8657
15.5049
15.1241
14.7212
14.282
13.807
13.3201
12.8669
12.4928
12.7754
12.6666
12.5943
12.5358
12.4714
12.403
12.3535
12.3525
12.4588
12.7501
13.2977
14.049
14.9489
15.8111
16.5693
16.8994
17.0445
17.0742
17.0739
16.9803
16.8057
16.5378
16.1834
15.7757
15.3345
14.8478
14.3202
13.7729
13.2561
12.8269
13.2103
13.1275
13.1088
13.1153
13.1147
13.1063
13.1117
13.1697
13.341
13.6996
14.3141
15.1157
16.0292
16.8569
17.5317
17.7234
17.7832
17.7493
17.7247
17.6466
17.5119
17.2958
16.9894
16.5721
16.0938
15.5552
14.9619
14.3389
13.7422
13.2482
13.8303
13.7862
13.8475
13.9414
14.0232
14.0903
14.1686
14.2995
14.5457
14.9777
15.6555
16.4944
17.398
18.1294
18.6582
18.6669
18.6104
18.4973
18.4401
18.3761
18.2907
18.1467
17.9202
17.569
17.0713
16.4846
15.8219
15.1102
14.4172
13.845
14.7463
14.7643
14.9398
15.1464
15.3354
15.5041
15.6779
15.8993
16.2292
16.732
17.4581
18.2972
19.128
19.6385
19.9379
19.7028
19.4899
19.2823
19.1821
19.1299
19.1054
19.0605
18.9523
18.7238
18.3243
17.7207
17.0018
16.2011
15.4025
14.7373
16.0946
16.23
16.5588
16.9171
17.2492
17.5521
17.8484
18.1781
18.5975
19.1481
19.8664
20.6037
21.1587
21.3443
21.2939
20.73
20.3258
20.0048
19.8493
19.8053
19.8534
19.935
19.9884
19.9448
19.7277
19.2889
18.5985
17.7357
16.8431
16.0733
18.0748
18.4133
18.9594
19.5244
20.0462
20.5164
20.9526
21.3784
21.8451
22.349
22.8309
23.1959
23.3264
23.0479
22.5048
21.5301
20.9016
20.4621
20.2409
20.195
20.3236
20.5572
20.8174
21.0115
21.0628
20.8956
20.4717
19.7813
18.8859
18.0399
20.7918
21.4712
22.3187
23.1473
23.8871
24.5171
25.0411
25.4343
25.6602
25.7661
25.7571
25.579
25.129
24.2342
23.0773
21.6897
20.8461
20.2942
20.0111
19.956
20.1556
20.541
21.0268
21.5043
21.8881
22.0783
22.0518
21.7386
21.2104
20.6747
22.8158
23.9228
25.1615
26.3146
27.275
27.9775
28.4155
28.5505
28.4091
28.0303
27.4033
26.5419
25.4012
23.8822
22.1876
20.5465
19.5923
18.9819
18.6638
18.6049
18.837
19.3034
19.931
20.6368
21.3407
21.9386
22.3527
22.5068
22.4643
22.4523
21.7858
23.1349
24.5964
25.9289
26.9931
27.6998
28.0226
27.9135
27.3865
26.527
25.3815
24.0278
22.4948
20.7454
18.967
17.5063
16.6857
16.1619
15.8767
15.8066
15.965
16.3268
16.8607
17.5402
18.3039
19.067
19.7407
20.2593
20.6687
21.1982
15.7522
16.8141
17.9997
19.1126
20.0162
20.6097
20.8519
20.6969
20.1756
19.3814
18.3972
17.3211
16.1725
14.9708
13.7926
12.9779
12.5365
12.2705
12.1048
12.0329
12.0547
12.1728
12.3827
12.6844
13.0595
13.4698
13.8777
14.2754
14.6805
15.2509
17.9697
20.6828
21.7434
22.349
22.4425
22.0456
21.2971
20.575
20.0303
20.3325
21.5901
24.395
28.8335
36.5189
46.0964
56.8088
65.4537
72.3609
67.6879
57.6071
48.2851
40.7762
34.7058
29.947
25.9411
22.4797
19.5944
17.2255
15.4934
14.5011
8.46016
9.25637
9.87525
10.3293
10.554
10.5751
10.4251
10.2276
10.0823
10.2282
10.7919
12.0095
14.103
17.3656
21.2721
25.497
28.9847
31.1882
28.9925
24.9661
21.2502
18.2083
15.8183
13.9873
12.4701
11.114
9.93761
8.93128
8.33331
7.97972
6.79932
7.23561
7.68991
8.03055
8.2134
8.26038
8.19345
8.08764
8.03109
8.18193
8.65269
9.60777
11.1939
13.5346
16.3089
19.211
21.6078
22.7887
21.1741
18.4018
15.7971
13.6475
11.9772
10.6921
9.64433
8.72159
7.91853
7.2281
6.81223
6.59602
6.25056
6.58181
6.95109
7.21882
7.35847
7.3932
7.34613
7.2782
7.27088
7.44633
7.90084
8.75858
10.1186
12.0552
14.3332
16.6288
18.4563
19.148
17.8279
15.6282
13.5143
11.7566
10.3945
9.34694
8.50614
7.78132
7.15259
6.6117
6.26081
6.10092
6.10793
6.41951
6.752
6.95901
7.05413
7.06461
7.01847
6.96976
6.99272
7.19411
7.65003
8.46344
9.71219
11.4372
13.44
15.3901
16.8347
17.244
16.0969
14.2276
12.3961
10.8614
9.67056
8.75295
8.02577
7.41265
6.88628
6.42323
6.10456
5.97559
6.2136
6.53305
6.83653
7.00385
7.05207
7.03466
6.98395
6.94327
6.97468
7.18324
7.6368
8.43119
9.64208
11.2872
13.1299
14.8638
16.0386
16.2772
15.2385
13.5741
11.9206
10.5248
9.42156
8.5642
7.88627
7.32132
6.84095
6.44371
6.18563
6.0906
6.53052
6.87041
7.13543
7.25027
7.25495
7.21103
7.15059
7.11263
7.15928
7.38892
7.85522
8.65568
9.85532
11.4495
13.1981
14.7883
15.7674
15.9078
14.9374
13.3703
11.7909
10.4629
9.44165
8.66637
8.05306
7.53539
7.09038
6.72431
6.47298
6.39751
7.00706
7.35532
7.57936
7.64239
7.61154
7.54275
7.47104
7.43376
7.49466
7.74419
8.22819
9.04163
10.2595
11.8374
13.5295
15.0136
15.8476
15.9261
14.9869
13.5328
12.0574
10.7895
9.80403
9.05058
8.45045
7.94863
7.5212
7.16961
6.92262
6.85857
7.60522
7.94845
8.12816
8.1442
8.08374
7.9931
7.91115
7.87447
7.94949
8.2194
8.72666
9.56252
10.8131
12.392
14.045
15.4399
16.1578
16.1949
15.3129
13.9491
12.5395
11.3193
10.354
9.60997
9.01589
8.51907
8.09746
7.75016
7.5028
7.44231
8.28954
8.61245
8.74333
8.72243
8.63698
8.52917
8.44017
8.40577
8.49647
8.7887
9.32526
10.1935
11.4798
13.0655
14.6821
15.9901
16.6098
16.6094
15.7862
14.5089
13.1695
11.9883
11.0371
10.2966
9.70524
9.20685
8.78412
8.43443
8.18164
8.11639
9.02281
9.30852
9.38946
9.34122
9.2372
9.11891
9.02797
8.99928
9.10921
9.42744
9.99961
10.909
12.229
13.8166
15.3897
16.6034
17.1343
17.095
16.3346
15.1516
13.8839
12.7407
11.8027
11.0636
10.4719
9.97103
9.54338
9.18707
8.92452
8.84618
9.76585
9.99886
10.0331
9.9659
9.85178
9.73147
9.64558
9.62801
9.76286
10.112
10.7269
11.6813
13.034
14.6114
16.1295
17.2352
17.6783
17.5987
16.9023
15.8192
14.629
13.5274
12.6048
11.867
11.2734
10.7703
10.3355
9.96979
9.69416
9.59517
10.4815
10.6498
10.6455
10.567
10.4525
10.34
10.2672
10.269
10.4363
10.8227
11.4881
12.49
13.872
15.4253
16.8763
17.8577
18.2074
18.0821
17.4476
16.4663
15.3608
14.3067
13.4034
12.6683
12.0719
11.5668
11.122
10.7443
10.4528
10.3268
11.1384
11.2359
11.2056
11.1227
11.0184
10.9242
10.8731
10.9068
11.1152
11.5456
12.2624
13.3088
14.7012
16.2046
17.5671
18.4243
18.7005
18.5231
17.943
17.0598
16.0456
15.0452
14.1665
13.437
12.8373
12.3267
11.8705
11.4775
11.1672
11.009
11.715
11.7451
11.6986
11.6213
11.5384
11.4734
11.4558
11.5327
11.7819
12.2544
13.0156
14.099
15.4762
16.9019
18.1552
18.8838
19.097
18.8993
18.3749
17.5813
16.6603
15.7193
14.8712
14.1515
13.5495
13.0297
12.5603
12.1465
11.8133
11.6187
12.2008
12.1773
12.1228
12.0622
12.0131
11.988
12.011
12.1299
12.4189
12.9365
13.7388
14.8487
16.1908
17.5192
18.6503
19.2363
19.377
19.167
18.7112
18.0194
17.1916
16.3153
15.5038
14.7996
14.1981
13.6676
13.183
12.7409
12.3787
12.1448
12.6018
12.5424
12.4889
12.4573
12.4503
12.467
12.5341
12.6995
13.0334
13.595
14.436
15.5577
16.848
18.0637
19.0654
19.5016
19.5637
19.3387
18.9365
18.3366
17.6129
16.8177
16.056
15.3759
14.7808
14.2416
13.7372
13.2636
12.8649
12.5885
12.941
12.8598
12.8183
12.8204
12.8608
12.9272
13.0439
13.2595
13.6414
14.2431
15.1179
16.2318
17.4564
18.5469
19.4162
19.7007
19.6811
19.4379
19.0748
18.5493
17.9165
17.2089
16.5092
15.8691
15.2947
14.7566
14.2345
13.7307
13.2871
12.9651
13.2494
13.1557
13.1313
13.184
13.2799
13.4008
13.5707
13.838
14.2635
14.9007
15.7982
16.8858
18.0294
18.9829
19.7185
19.8523
19.7504
19.486
19.1484
18.6815
18.1263
17.5025
16.8766
16.2837
15.74
15.2144
14.6853
14.1552
13.6709
13.3009
13.5536
13.4637
13.4809
13.5972
13.7543
13.9327
14.1572
14.4704
14.9306
15.5933
16.4955
17.5378
18.5839
19.3863
19.9863
19.9698
19.7885
19.4907
19.1622
18.7477
18.2654
17.719
17.1728
16.6401
16.1394
15.6395
15.1129
14.5605
14.0374
13.6223
13.907
13.84
13.931
14.122
14.3453
14.581
14.8512
15.1975
15.6814
16.352
17.2333
18.2069
19.1344
19.7701
20.2278
20.061
19.8001
19.4781
19.1494
18.7563
18.3404
17.8786
17.4142
16.9582
16.5155
16.0588
15.5527
14.9917
14.4356
13.982
14.3679
14.3517
14.5416
14.8185
15.111
15.3984
15.7039
16.0705
16.5582
17.2101
18.0368
18.9076
19.6885
20.1373
20.4398
20.1234
19.7893
19.4437
19.1147
18.7391
18.3623
17.9847
17.612
17.2459
16.883
16.4919
16.032
15.4869
14.9148
14.4339
14.9888
15.0674
15.3702
15.7411
16.104
16.4383
16.7679
17.1353
17.5966
18.1913
18.9177
19.6395
20.2381
20.4716
20.6002
20.137
19.7348
19.368
19.0356
18.6834
18.3421
18.0218
17.756
17.4949
17.2355
16.9404
16.5619
16.0714
15.5177
15.0367
15.8053
16.0163
16.4446
16.9159
17.3497
17.7248
18.063
18.4039
18.7981
19.2835
19.8527
20.3716
20.7375
20.7224
20.6569
20.0602
19.6003
19.2193
18.8803
18.5417
18.2424
17.9839
17.7958
17.6592
17.5276
17.363
17.1119
16.7304
16.2533
15.8214
16.7766
17.1539
17.7156
18.2913
18.7942
19.2006
19.5281
19.8091
20.0881
20.4018
20.7436
20.9968
21.0726
20.7894
20.5163
19.8199
19.3256
18.9438
18.5986
18.2649
17.9905
17.7855
17.678
17.6471
17.6582
17.6564
17.5782
17.3701
17.0474
16.7405
17.73
18.2822
18.9734
19.6513
20.2171
20.6428
20.9387
21.1246
21.2356
21.3122
21.3554
21.2863
21.0429
20.4917
20.0375
19.3132
18.8281
18.4681
18.1208
17.7821
17.513
17.3353
17.2811
17.3333
17.4741
17.6385
17.7611
17.7801
17.6908
17.6086
18.2699
18.957
19.7513
20.503
21.1143
21.5437
21.7883
21.8502
21.7511
21.5476
21.2655
20.8645
20.3307
19.5846
19.0455
18.4218
18.0159
17.7086
17.3727
17.022
16.7323
16.5407
16.4884
16.5695
16.7793
17.0606
17.3555
17.601
17.789
18.0202
17.6329
18.3757
19.2103
19.9901
20.6123
21.0202
21.2033
21.1449
20.8654
20.4351
19.8971
19.2632
18.5718
17.823
17.3955
17.0576
16.8226
16.6181
16.3137
15.9467
15.6065
15.3464
15.2197
15.2329
15.3977
15.6766
16.0253
16.3906
16.7661
17.2693
15.118
15.7753
16.5278
17.2388
17.8086
18.1739
18.3168
18.2091
17.8734
17.3854
16.8061
16.1893
15.6188
15.1611
15.1116
15.2506
15.2851
15.2371
14.988
14.6097
14.1968
13.8178
13.5338
13.3739
13.3459
13.4388
13.6329
13.8958
14.2327
14.7599
11.0395
11.4351
11.9293
12.4258
12.8482
13.1407
13.2779
13.2413
13.0436
12.7497
12.4203
12.1233
11.9606
12.0426
12.5364
13.2449
13.5957
13.74
13.5683
13.196
12.7169
12.2121
11.7461
11.353
11.0498
10.8345
10.7016
10.6456
10.6733
10.8735
22.5461
26.293
27.734
28.4102
28.3935
27.7959
26.7727
25.8552
25.0649
25.0258
25.7124
28.4303
33.7865
44.5072
57.9229
73.4809
86.7407
97.6711
89.4829
73.5053
59.4203
48.7761
40.9325
35.2303
30.7486
26.9714
23.7004
20.9901
18.8767
17.6625
10.0387
11.1871
11.9981
12.476
12.6347
12.5358
12.2355
11.925
11.6587
11.6391
12.04
13.3052
15.9894
20.553
26.1757
32.3741
37.7878
41.2443
37.5209
31.2195
25.6022
21.1981
17.9737
15.6575
13.9127
12.4605
11.2123
10.1401
9.49634
9.16074
7.97774
8.65443
9.24484
9.61856
9.76213
9.71597
9.52308
9.30467
9.14885
9.20435
9.62624
10.7244
12.8306
16.1613
20.2569
24.6936
28.5373
30.4867
27.7434
23.262
19.1729
15.9271
13.5532
11.8618
10.6198
9.61973
8.77556
8.06124
7.63605
7.47625
7.31738
7.83516
8.31527