/*--------------------------------*- C++ -*----------------------------------*\
| =========                 |                                                 |
| \\      /  F ield         | OpenFOAM: The Open Source CFD Toolbox           |
|  \\    /   O peration     | Version:  5.0                                   |
|   \\  /    A nd           | Web:      www.OpenFOAM.org                      |
|    \\/     M anipulation  |                                                 |
\*---------------------------------------------------------------------------*/
FoamFile
{
    version     2.0;
    format      ascii;
    class       volScalarField;
    location    "250/air";
    object      k;
}
// * * * * * * * * * * * * * * * * * * * * * * * * * * * * * * * * * * * * * //

dimensions      [0 2 -2 0 0 0 0];

internalField   nonuniform List<scalar> 
243000
(
0.0743465
0.079555
0.081484
0.081554
0.0802081
0.0776423
0.0739845
0.069588
0.0646192
0.0598468
0.0552397
0.0535146
0.0634483
0.0851304
0.10529
0.123558
0.137254
0.145698
0.144065
0.135912
0.123523
0.112375
0.101454
0.0911794
0.0818291
0.0737904
0.0677761
0.0634901
0.0627594
0.0631546
0.139228
0.142561
0.142228
0.13981
0.136127
0.131169
0.125079
0.118437
0.111456
0.105424
0.100568
0.101775
0.121862
0.15334
0.183432
0.210681
0.231393
0.245077
0.243946
0.231961
0.213235
0.195764
0.178302
0.162015
0.147174
0.134631
0.125254
0.118673
0.116793
0.117206
0.173648
0.17761
0.176985
0.173878
0.169286
0.163263
0.156036
0.148312
0.140362
0.133823
0.12918
0.133045
0.158713
0.193721
0.227465
0.257873
0.280858
0.296028
0.295503
0.282748
0.262106
0.242165
0.222037
0.203133
0.185933
0.171467
0.160614
0.153152
0.150801
0.151838
0.199778
0.204561
0.204069
0.200794
0.195774
0.189165
0.181291
0.172934
0.164426
0.157705
0.153541
0.160319
0.18924
0.225937
0.261213
0.292873
0.31654
0.332033
0.332068
0.319435
0.298244
0.277101
0.255541
0.235133
0.216561
0.20098
0.18924
0.181271
0.178489
0.180014
0.221445
0.22697
0.226692
0.223377
0.218086
0.211081
0.202777
0.194007
0.185154
0.178422
0.174867
0.184532
0.215247
0.252516
0.288174
0.320074
0.343697
0.359028
0.359641
0.347629
0.326618
0.305022
0.282752
0.261496
0.242136
0.225902
0.213612
0.205316
0.202146
0.203953
0.240763
0.246859
0.246717
0.243332
0.237764
0.230385
0.221704
0.212592
0.203477
0.196791
0.193879
0.206268
0.237852
0.274965
0.310426
0.342083
0.365382
0.380441
0.381667
0.370577
0.350174
0.328575
0.306048
0.284371
0.264578
0.247965
0.235307
0.226768
0.223271
0.225201
0.258987
0.265489
0.265324
0.261747
0.255799
0.247967
0.238864
0.229391
0.220015
0.213364
0.211074
0.225929
0.257754
0.294301
0.329273
0.360496
0.383437
0.398296
0.400184
0.390222
0.370709
0.349436
0.326948
0.305104
0.285085
0.268242
0.255336
0.246632
0.242917
0.244901
0.276918
0.283645
0.283262
0.279319
0.27283
0.264409
0.254778
0.244866
0.235182
0.228508
0.226838
0.243767
0.275413
0.311188
0.345537
0.376292
0.398961
0.413782
0.416394
0.407725
0.389276
0.368555
0.346321
0.32452
0.304443
0.287506
0.274475
0.265692
0.261867
0.263876
0.295055
0.301787
0.300989
0.296475
0.289248
0.280072
0.269776
0.259315
0.249238
0.242438
0.24133
0.259962
0.291124
0.326042
0.359712
0.390042
0.412583
0.427553
0.430958
0.423717
0.406487
0.386519
0.364744
0.34318
0.323208
0.306305
0.293269
0.2845
0.28067
0.282704
0.31366
0.32013
0.318729
0.313421
0.305249
0.295142
0.284037
0.272897
0.262317
0.255249
0.254638
0.274592
0.30507
0.339093
0.372063
0.402036
0.424594
0.439906
0.444179
0.438482
0.422624
0.403613
0.382504
0.361375
0.341679
0.324959
0.312051
0.303403
0.299672
0.301744
0.332784
0.338688
0.336495
0.330171
0.320863
0.309662
0.297605
0.285652
0.274444
0.266952
0.266765
0.287651
0.317313
0.350419
0.382677
0.412351
0.435052
0.45089
0.456102
0.452038
0.437726
0.419872
0.399649
0.379168
0.359947
0.343577
0.330947
0.322546
0.31902
0.321138
0.352263
0.357285
0.354112
0.34658
0.335976
0.323546
0.310413
0.297517
0.285544
0.277472
0.27763
0.29906
0.327826
0.359984
0.391511
0.42092
0.443855
0.460373
0.466584
0.464204
0.451633
0.435136
0.416031
0.396427
0.377894
0.36207
0.349891
0.341877
0.338662
0.340821
0.371731
0.375564
0.371242
0.362362
0.350351
0.336598
0.322289
0.308332
0.295459
0.286661
0.287087
0.308677
0.336494
0.367665
0.398427
0.427573
0.450792
0.468104
0.475355
0.474683
0.464028
0.449088
0.431338
0.41285
0.395239
0.38017
0.368629
0.361149
0.358341
0.360517
0.390631
0.393018
0.387427
0.377121
0.363652
0.348533
0.332978
0.31786
0.30396
0.294331
0.294916
0.316354
0.343158
0.373282
0.403231
0.432081
0.455576
0.47376
0.482078
0.483096
0.474487
0.461298
0.445131
0.428004
0.411555
0.397449
0.386734
0.37993
0.377613
0.379769
0.408243
0.409049
0.402126
0.390383
0.375471
0.358989
0.342157
0.325812
0.31079
0.300375
0.301082
0.322065
0.347718
0.376677
0.405731
0.434188
0.457865
0.476933
0.486405
0.489037
0.482531
0.471267
0.456894
0.441356
0.426305
0.41337
0.403653
0.397643
0.395871
0.397946
0.423783
0.422997
0.414745
0.401621
0.385341
0.367547
0.349449
0.331904
0.315877
0.305846
0.307232
0.327028
0.350934
0.378108
0.405993
0.433894
0.45766
0.477423
0.487942
0.492116
0.487692
0.478488
0.466079
0.452331
0.438883
0.427313
0.418739
0.413612
0.412399
0.414312
0.436477
0.434176
0.424664
0.410251
0.392685
0.373719
0.354622
0.336557
0.321066
0.311432
0.313236
0.331811
0.354118
0.37969
0.406094
0.432413
0.455085
0.475009
0.486444
0.491999
0.489553
0.482531
0.472177
0.460352
0.448669
0.438619
0.431312
0.42712
0.426436
0.428091
0.445625
0.441924
0.431227
0.415744
0.397341
0.37777
0.358997
0.341248
0.326183
0.316874
0.318894
0.336238
0.357059
0.381132
0.406057
0.430983
0.452726
0.471756
0.482975
0.488798
0.487974
0.48286
0.474776
0.464997
0.455102
0.446654
0.440688
0.43745
0.437226
0.438533
0.450637
0.445625
0.434192
0.418311
0.400575
0.381559
0.3631
0.345659
0.330965
0.321954
0.324041
0.340146
0.35957
0.382192
0.405711
0.429345
0.450243
0.46846
0.479547
0.485671
0.485339
0.481121
0.474081
0.465843
0.457887
0.450976
0.446262
0.443939
0.444062
0.444962
0.45125
0.445795
0.435275
0.420348
0.403252
0.384793
0.366672
0.349549
0.335212
0.326493
0.328544
0.343399
0.361524
0.382637
0.404862
0.427279
0.447362
0.464812
0.4758
0.482192
0.48239
0.479075
0.473103
0.466081
0.459033
0.452716
0.448218
0.446221
0.446497
0.446978
0.450305
0.445384
0.435632
0.421555
0.405113
0.387246
0.369528
0.352768
0.338785
0.330364
0.332303
0.345896
0.362735
0.382331
0.403344
0.424594
0.443855
0.460575
0.471458
0.47805
0.478805
0.476365
0.471514
0.465511
0.459321
0.453688
0.449525
0.447404
0.446953
0.446627
0.448365
0.443774
0.434804
0.42169
0.405964
0.388773
0.371544
0.355205
0.341565
0.333475
0.335233
0.347529
0.362983
0.381274
0.401024
0.421127
0.439545
0.455556
0.466294
0.473008
0.47432
0.472711
0.468923
0.463929
0.458508
0.45346
0.449628
0.447377
0.446322
0.44532
0.444998
0.440587
0.43248
0.420433
0.405671
0.389285
0.372612
0.356761
0.343515
0.33576
0.337266
0.34815
0.362285
0.379296
0.397782
0.416733
0.434286
0.449585
0.460109
0.466852
0.468694
0.467863
0.465062
0.460993
0.456373
0.451911
0.448342
0.445882
0.444185
0.442566
0.439841
0.435687
0.428404
0.41759
0.403999
0.388629
0.372698
0.357395
0.344607
0.337169
0.338373
0.347781
0.360645
0.376297
0.393517
0.411295
0.427944
0.442503
0.452718
0.45939
0.461699
0.461577
0.459677
0.456479
0.452596
0.448676
0.445305
0.442565
0.440214
0.437984
0.432623
0.428888
0.422554
0.413001
0.400748
0.386586
0.371611
0.357098
0.344879
0.337705
0.338438
0.346564
0.358052
0.372239
0.388158
0.404738
0.420435
0.434183
0.443962
0.450441
0.453104
0.453619
0.452508
0.450123
0.446936
0.443493
0.440242
0.437172
0.434146
0.431281
0.423102
0.420003
0.41484
0.406662
0.395825
0.383039
0.369298
0.355784
0.344336
0.337527
0.337806
0.344617
0.3547
0.367373
0.381794
0.397127
0.411777
0.424586
0.433762
0.439889
0.442746
0.443766
0.443298
0.44164
0.43908
0.436045
0.432836
0.429401
0.425705
0.422196
0.411177
0.408997
0.405297
0.398695
0.389502
0.378317
0.366032
0.353896
0.343656
0.337431
0.337305
0.342909
0.351598
0.362664
0.375375
0.389106
0.402509
0.414094
0.422369
0.427925
0.430751
0.432063
0.432036
0.430919
0.428845
0.42611
0.422873
0.419031
0.414652
0.41054
0.397242
0.39659
0.394866
0.390433
0.383505
0.374643
0.364757
0.354883
0.34647
0.341483
0.341321
0.345953
0.353287
0.362495
0.373018
0.384468
0.395855
0.40553
0.412243
0.416717
0.419007
0.42006
0.42
0.419028
0.417134
0.414462
0.41105
0.406701
0.401543
0.396778
0.391917
0.394491
0.396347
0.395784
0.393109
0.388735
0.383371
0.377817
0.373148
0.370685
0.37129
0.37504
0.380358
0.386593
0.393388
0.400665
0.407856
0.413963
0.417935
0.420375
0.421308
0.421307
0.420386
0.418729
0.416202
0.412816
0.408512
0.403174
0.396934
0.39121
0.491626
0.499062
0.505618
0.509961
0.512525
0.513369
0.512916
0.511249
0.508809
0.505779
0.502544
0.499661
0.496848
0.494136
0.490987
0.488702
0.487691
0.487551
0.487949
0.489577
0.49197
0.49473
0.497424
0.499734
0.501264
0.501671
0.500687
0.498187
0.494385
0.490352
0.132523
0.140916
0.142857
0.141826
0.138337
0.132822
0.125705
0.118155
0.110895
0.106709
0.106847
0.116098
0.132186
0.157885
0.186856
0.215431
0.23805
0.254487
0.251906
0.236296
0.217154
0.19924
0.18206
0.166056
0.151345
0.13849
0.128423
0.120748
0.117147
0.116334
0.254394
0.260143
0.25928
0.254381
0.246733
0.236778
0.225726
0.215685
0.207669
0.205921
0.211686
0.229692
0.254055
0.292231
0.33565
0.377327
0.410376
0.436264
0.43475
0.41157
0.382965
0.355449
0.328487
0.302987
0.2793
0.258674
0.24269
0.230487
0.224634
0.224455
0.327859
0.334291
0.335057
0.330666
0.322907
0.312431
0.300876
0.290658
0.283049
0.283313
0.293065
0.315706
0.344803
0.388436
0.437209
0.482316
0.517379
0.544322
0.544066
0.520434
0.48949
0.458416
0.42737
0.397549
0.369719
0.345353
0.326346
0.311975
0.305148
0.305498
0.382557
0.389917
0.39181
0.387971
0.380492
0.370209
0.359022
0.349397
0.342777
0.345074
0.357822
0.38257
0.41394
0.459323
0.509273
0.554155
0.58832
0.61422
0.615271
0.593406
0.562997
0.531228
0.498827
0.467248
0.437542
0.411314
0.390522
0.374819
0.366572
0.366655
0.428939
0.437697
0.440019
0.436384
0.428933
0.418761
0.407962
0.398991
0.393356
0.397321
0.41212
0.437646
0.469909
0.515436
0.564756
0.608426
0.641031
0.665684
0.668166
0.648868
0.620061
0.588769
0.556167
0.523904
0.493265
0.465966
0.443908
0.427194
0.417509
0.41711
0.472104
0.482358
0.484574
0.48073
0.472873
0.462425
0.451682
0.443092
0.438179
0.443316
0.459227
0.484964
0.517371
0.56228
0.610384
0.652821
0.684078
0.707917
0.711976
0.695588
0.668827
0.638562
0.606297
0.57384
0.542641
0.514588
0.491511
0.473944
0.463073
0.462233
0.514853
0.526525
0.528158
0.523658
0.514897
0.503691
0.492545
0.48393
0.47937
0.485145
0.50127
0.527055
0.559147
0.603165
0.650003
0.691531
0.722061
0.745631
0.751438
0.738176
0.713681
0.68477
0.653121
0.620685
0.589108
0.560447
0.536537
0.518309
0.506648
0.505589
0.558848
0.571516
0.572125
0.566541
0.556404
0.543969
0.531962
0.522882
0.518289
0.524188
0.540441
0.565466
0.596996
0.640104
0.685818
0.726859
0.757291
0.781169
0.788875
0.778939
0.756861
0.729514
0.698722
0.666584
0.634868
0.605818
0.581315
0.562603
0.550483
0.549372
0.604824
0.617739
0.616988
0.609897
0.597982
0.583935
0.570664
0.56072
0.55572
0.56128
0.577004
0.601154
0.631993
0.67422
0.718962
0.759879
0.790782
0.815423
0.825159
0.818715
0.799319
0.773836
0.744236
0.712707
0.681142
0.65195
0.627101
0.608098
0.595792
0.594741
0.652749
0.664923
0.662591
0.653596
0.639625
0.623696
0.608863
0.597726
0.591981
0.596629
0.611375
0.634564
0.664647
0.705975
0.749829
0.790851
0.822667
0.848394
0.860249
0.857408
0.841026
0.817764
0.789754
0.759226
0.728186
0.69918
0.67429
0.65522
0.642951
0.64196
0.701935
0.712335
0.708168
0.697026
0.680863
0.662925
0.646345
0.633777
0.626996
0.630233
0.643627
0.665759
0.695034
0.73534
0.778318
0.819515
0.85253
0.879526
0.893563
0.894273
0.881311
0.860648
0.834686
0.805622
0.775557
0.747129
0.722548
0.703669
0.691612
0.690567
0.751159
0.758812
0.752608
0.739239
0.720898
0.700958
0.682578
0.668429
0.660381
0.661799
0.673558
0.694508
0.722924
0.762027
0.804052
0.845349
0.879654
0.908001
0.924247
0.928234
0.919101
0.901421
0.877981
0.850883
0.822281
0.794854
0.770958
0.752534
0.740818
0.739518
0.798792
0.802936
0.794639
0.779106
0.758734
0.73693
0.716803
0.701016
0.691521
0.690881
0.700764
0.720442
0.74795
0.785651
0.826602
0.867801
0.903243
0.932979
0.951285
0.958274
0.953175
0.938825
0.918343
0.893694
0.867059
0.84106
0.818184
0.800447
0.78914
0.78733
0.84295
0.843331
0.832972
0.815446
0.793304
0.76988
0.748158
0.730769
0.719697
0.71701
0.724802
0.7432
0.7698
0.805941
0.845706
0.886511
0.922709
0.953758
0.973848
0.983529
0.982358
0.971621
0.954441
0.932654
0.908434
0.884263
0.86271
0.845811
0.834886
0.832273
0.881785
0.878869
0.866419
0.847157
0.823589
0.798873
0.775822
0.756987
0.744381
0.739718
0.745368
0.76264
0.788401
0.822984
0.861512
0.901553
0.937943
0.969914
0.991492
1.00351
1.00573
0.998797
0.985117
0.966472
0.945002
0.922985
0.903
0.887037
0.876405
0.872645
0.914089
0.90832
0.893958
0.873313
0.848735
0.823151
0.799187
0.77922
0.76541
0.758857
0.762459
0.779121
0.804219
0.837547
0.874947
0.913757
0.949514
0.981538
1.00435
1.01814
1.02303
1.01975
1.00956
0.994166
0.975606
0.955942
0.937666
0.922681
0.912212
0.906998
0.939028
0.930808
0.914881
0.893294
0.8682
0.842313
0.818135
0.797524
0.782085
0.773987
0.775984
0.792232
0.816552
0.848678
0.885109
0.923088
0.958427
0.989829
1.01308
1.02798
1.03471
1.03443
1.0275
1.01522
0.999515
0.982226
0.96568
0.951622
0.941159
0.934255
0.956259
0.946029
0.92893
0.906916
0.882003
0.856586
0.832117
0.810829
0.794366
0.785261
0.78626
0.802227
0.825835
0.856855
0.892253
0.929041
0.963378
0.994297
1.01818
1.03446
1.04219
1.04365
1.03936
1.02977
1.01661
1.00149
0.986543
0.973249
0.962594
0.953891
0.966161
0.954455
0.936944
0.915339
0.890486
0.865048
0.840721
0.819421
0.802625
0.793164
0.793882
0.80964
0.832717
0.862679
0.896942
0.932247
0.965146
0.995578
1.01954
1.03625
1.04536
1.04848
1.04646
1.03897
1.02768
1.01417
1.00051
0.987669
0.97655
0.966177
0.970496
0.958281
0.94047
0.918948
0.894632
0.869653
0.845753
0.824505
0.80781
0.79852
0.79959
0.81527
0.837959
0.866871
0.899795
0.933341
0.964876
0.993628
1.01707
1.03409
1.04429
1.04869
1.04783
1.0422
1.03312
1.02158
1.009
0.99619
0.984165
0.972741
0.970588
0.957096
0.939746
0.919127
0.895711
0.871591
0.848615
0.827863
0.811331
0.802556
0.804346
0.820058
0.842387
0.870139
0.901488
0.932905
0.962404
0.98943
1.01207
1.029
1.03987
1.04522
1.04513
1.04053
1.03222
1.02137
1.00923
0.996348
0.983719
0.972099
0.963753
0.949545
0.933756
0.915427
0.894327
0.872204
0.85069
0.83082
0.814767
0.806795
0.809346
0.82512
0.846968
0.873318
0.902675
0.93158
0.958894
0.983948
1.00541
1.0219
1.03315
1.03921
1.03997
1.03602
1.02852
1.01798
1.00555
0.992074
0.978585
0.966413
0.953098
0.939179
0.925444
0.909928
0.891933
0.873023
0.853467
0.834789
0.820014
0.812989
0.816177
0.831907
0.852975
0.877435
0.904291
0.930221
0.955097
0.977995
0.997854
1.01353
1.02489
1.03162
1.0334
1.03014
1.0231
1.01269
0.999683
0.984982
0.969905
0.956598
0.940882
0.928289
0.91745
0.905228
0.891757
0.875841
0.858582
0.842126
0.829417
0.823454
0.827139
0.842514
0.862249
0.88414
0.907858
0.930311
0.952249
0.972728
0.990395
1.00476
1.01585
1.02328
1.0263
1.02402
1.01771
1.00729
0.993467
0.977096
0.959896
0.944894
0.929661
0.919649
0.912716
0.905386
0.895558
0.883473
0.869926
0.856602
0.846335
0.841798
0.845996
0.860255
0.877965
0.896557
0.916255
0.934361
0.953037
0.970302
0.984831
0.997183
1.00736
1.01532
1.0197
1.01876
1.01353
1.00358
0.989101
0.971045
0.951445
0.934069
0.922861
0.917354
0.915809
0.913778
0.909271
0.902121
0.893234
0.884089
0.877052
0.874379
0.878879
0.891416
0.905996
0.920258
0.934543
0.947122
0.961354
0.974737
0.985404
0.994417
1.00278
1.01041
1.01563
1.01625
1.01204
1.00248
0.987815
0.968676
0.947267
0.927655
0.927819
0.929189
0.935517
0.940966
0.943218
0.942376
0.939567
0.93573
0.932499
0.931796
0.935995
0.945706
0.955438
0.962808
0.968058
0.971895
0.979452
0.987076
0.992502
0.998687
1.00615
1.01451
1.02077
1.02237
1.01901
1.00992
0.995385
0.975344
0.952309
0.931195
0.953334
0.966114
0.983724
0.999192
1.01019
1.01714
1.02133
1.0227
1.02232
1.02169
1.02106
1.01998
1.01614
1.00804
0.99562
0.985767
0.983994
0.983876
0.98401
0.988523
0.996995
1.00845
1.01991
1.02876
1.03255
1.02985
1.02012
1.00088
0.977032
0.955149
0.968306
0.999593
1.03236
1.05967
1.07943
1.09168
1.09751
1.09608
1.08792
1.07498
1.05709
1.03565
1.01184
0.985726
0.95754
0.938609
0.929686
0.923973
0.920111
0.922723
0.930083
0.941123
0.954643
0.969789
0.983043
0.991625
0.992705
0.985915
0.973423
0.962645
0.864408
0.898322
0.930668
0.9586
0.97963
0.992397
0.996698
0.991275
0.977674
0.957782
0.933607
0.90943
0.884202
0.858808
0.832024
0.814875
0.805935
0.800635
0.797566
0.799387
0.804293
0.811448
0.820059
0.830028
0.839816
0.847763
0.852584
0.855277
0.85508
0.85589
0.179928
0.192064
0.195043
0.194022
0.189726
0.18284
0.1742
0.165791
0.158693
0.156882
0.161659
0.17567
0.196764
0.229254
0.266489
0.303629
0.33296
0.35553
0.347786
0.322331
0.295013
0.270578
0.248417
0.228485
0.210109
0.193541
0.179787
0.168611
0.161618
0.159032
0.339322
0.356869
0.360721
0.357019
0.348083
0.335513
0.321405
0.309347
0.300756
0.301572
0.312629
0.33637
0.370774
0.421856
0.480782
0.536633
0.578979
0.611426
0.599404
0.559368
0.517386
0.48003
0.446338
0.415222
0.385888
0.359197
0.33713
0.318942
0.307703
0.304456
0.429298
0.447694
0.454148
0.451328
0.442693
0.430026
0.415986
0.404189
0.396412
0.39974
0.414592
0.443153
0.4825
0.538753
0.602705
0.661414
0.704849
0.735843
0.723542
0.68284
0.638504
0.597916
0.560817
0.526143
0.493243
0.463089
0.437989
0.417625
0.405629
0.40354
0.495832
0.514509
0.521861
0.519311
0.511011
0.498757
0.485472
0.474685
0.468436
0.474444
0.491995
0.522678
0.563168
0.620174
0.683956
0.741113
0.782181
0.80986
0.798506
0.760384
0.71737
0.676916
0.639361
0.603893
0.570027
0.538835
0.512606
0.491492
0.478735
0.477162
0.553718
0.572859
0.579957
0.577102
0.568622
0.556453
0.543701
0.533814
0.528874
0.536901
0.556365
0.587781
0.628219
0.684539
0.746489
0.8011
0.839122
0.863692
0.853865
0.819166
0.778662
0.739569
0.702652
0.667415
0.633525
0.602141
0.575427
0.554023
0.54054
0.539137
0.609258
0.628911
0.634994
0.631331
0.622095
0.609502
0.596829
0.587472
0.583475
0.59284
0.613314
0.644832
0.684897
0.740069
0.79996
0.852101
0.887381
0.909616
0.901711
0.870614
0.833025
0.795792
0.759965
0.725322
0.691724
0.660426
0.633454
0.611943
0.598005
0.596681
0.665686
0.685589
0.690009
0.685101
0.674588
0.661073
0.648016
0.638773
0.635312
0.64535
0.666209
0.697486
0.736991
0.791028
0.849087
0.899211
0.932394
0.953154
0.947521
0.920047
0.88545
0.850306
0.815832
0.781993
0.748831
0.717695
0.690613
0.669123
0.655021
0.653824
0.72453
0.744062
0.746246
0.739703
0.727497
0.712674
0.698856
0.689344
0.686054
0.696184
0.716944
0.747697
0.786559
0.839604
0.896117
0.944717
0.976488
0.996549
0.99344
0.969652
0.938056
0.905141
0.87225
0.839529
0.807081
0.776349
0.749364
0.72797
0.713822
0.712664
0.78604
0.804234
0.803814
0.795276
0.781113
0.764749
0.749908
0.739832
0.736382
0.746088
0.766342
0.796384
0.83457
0.886734
0.941852
0.989294
1.02025
1.0402
1.03974
1.01981
0.991366
0.9609
0.929886
0.898584
0.867179
0.837123
0.810456
0.789255
0.775134
0.773888
0.849326
0.864981
0.862006
0.851156
0.83495
0.816972
0.800981
0.790138
0.786257
0.795077
0.814507
0.84369
0.881187
0.932496
0.986222
1.03268
1.06326
1.08353
1.08567
1.06981
1.0447
1.01694
0.988114
0.958582
0.928581
0.899539
0.873472
0.852595
0.838531
0.836953
0.912867
0.924801
0.919236
0.906113
0.887969
0.868471
0.851333
0.839615
0.835099
0.842671
0.86104
0.88928
0.926073
0.976468
1.02868
1.07414
1.10461
1.12537
1.12998
1.11831
1.09675
1.07192
1.0456
1.0182
0.989928
0.962234
0.937077
0.91672
0.902784
0.900554
0.97463
0.981774
0.973796
0.958635
0.938811
0.918023
0.899868
0.88726
0.881993
0.888066
0.905267
0.932538
0.968686
1.01798
1.06853
1.11281
1.14325
1.16448
1.17134
1.1638
1.14591
1.12418
1.10064
1.07571
1.04952
1.02335
0.999357
0.979719
0.966039
0.962858
1.03214
1.03396
1.02407
1.00714
0.986008
0.964275
0.945323
0.931914
0.925884
0.930373
0.946435
0.972833
1.00849
1.0564
1.10519
1.14802
1.1783
1.19977
1.20858
1.20485
1.19064
1.17207
1.15146
1.12924
1.10545
1.08112
1.05825
1.03936
1.02594
1.02165
1.08262
1.08039
1.06854
1.05017
1.02818
1.00592
0.986481
0.972477
0.965796
0.968834
0.983954
1.00971
1.04514
1.09144
1.13847
1.17948
1.20928
1.2306
1.24094
1.24043
1.2297
1.21416
1.19649
1.17706
1.15585
1.13358
1.11208
1.09375
1.08023
1.07445
1.12523
1.11964
1.10588
1.0865
1.06418
1.0419
1.02238
1.00814
1.00106
1.00306
1.01766
1.04321
1.07874
1.12341
1.16871
1.20746
1.23629
1.25687
1.26825
1.27
1.26235
1.24951
1.23455
1.21783
1.19918
1.17904
1.15902
1.14136
1.12766
1.11991
1.15898
1.15048
1.13517
1.11533
1.09329
1.07158
1.0525
1.03859
1.03131
1.03224
1.0464
1.07198
1.10746
1.15019
1.19359
1.23037
1.25887
1.27905
1.29083
1.2938
1.28854
1.27784
1.2651
1.25074
1.23441
1.21628
1.19769
1.18067
1.16671
1.15684
1.18334
1.17234
1.156
1.13641
1.11534
1.09496
1.0767
1.06292
1.05562
1.05601
1.07008
1.09591
1.13079
1.17132
1.21245
1.24681
1.27463
1.29526
1.30822
1.31263
1.30889
1.2996
1.28835
1.27573
1.26122
1.24474
1.22734
1.21079
1.19647
1.18448
1.19853
1.18543
1.16864
1.15017
1.13069
1.11151
1.09433
1.08119
1.07419
1.07459
1.08898
1.11501
1.14878
1.1868
1.22529
1.2568
1.28351
1.30436
1.31857
1.32441
1.32281
1.31536
1.3053
1.29358
1.28014
1.26471
1.24806
1.23164
1.21677
1.20297
1.20594
1.19157
1.17493
1.15715
1.13901
1.12168
1.10614
1.09407
1.08771
1.08865
1.10369
1.12945
1.16185
1.19696
1.23237
1.26061
1.28583
1.30649
1.32182
1.32907
1.32909
1.32345
1.31467
1.30411
1.29185
1.27735
1.2609
1.24411
1.22843
1.21375
1.20876
1.1928
1.17638
1.15969
1.14307
1.12726
1.11342
1.10277
1.09728
1.09916
1.11481
1.13991
1.17061
1.20239
1.2342
1.25878
1.2822
1.30224
1.31825
1.32683
1.32791
1.32345
1.31611
1.30641
1.29474
1.28062
1.26431
1.24703
1.23055
1.21598
1.20408
1.18655
1.17192
1.15858
1.1444
1.1306
1.11822
1.10895
1.10443
1.10744
1.12318
1.14725
1.17584
1.20321
1.23148
1.2521
1.27345
1.29253
1.3088
1.31807
1.32046
1.31761
1.31153
1.3028
1.2916
1.27748
1.2609
1.24304
1.22588
1.21128
1.19335
1.17628
1.16449
1.15452
1.14426
1.13327
1.12257
1.11466
1.11102
1.1149
1.1302
1.1526
1.17818
1.20137
1.22521
1.24146
1.26054
1.27842
1.29435
1.30382
1.30744
1.30616
1.30153
1.29404
1.2837
1.27023
1.25372
1.23511
1.21669
1.20157
1.17998
1.165
1.15724
1.15113
1.14506
1.13695
1.12868
1.12209
1.11923
1.12332
1.13741
1.15722
1.17876
1.19726
1.21629
1.22777
1.24443
1.261
1.27595
1.28518
1.2897
1.28997
1.28712
1.28107
1.27205
1.25932
1.24315
1.22402
1.20434
1.18832
1.16651
1.15534
1.15242
1.15105
1.1488
1.14434
1.1386
1.13345
1.13115
1.13457
1.14639
1.16245
1.179
1.19186
1.20536
1.21172
1.22583
1.24096
1.25449
1.26305
1.26799
1.26977
1.26883
1.26473
1.25725
1.24604
1.23072
1.21176
1.1913
1.17438
1.15501
1.14964
1.15207
1.15622
1.15844
1.15754
1.15443
1.15073
1.14866
1.15043
1.15801
1.16865
1.179
1.18518
1.19217
1.19318
1.20469
1.2183
1.23014
1.23771
1.24261
1.24559
1.24661
1.24479
1.23956
1.23028
1.21693
1.19953
1.17926
1.16185
1.14762
1.14976
1.15865
1.1687
1.17599
1.17885
1.17807
1.17513
1.17174
1.16982
1.17056
1.17374
1.17642
1.1749
1.17443
1.17023
1.17926
1.19144
1.20169
1.20816
1.21268
1.21633
1.21908
1.2196
1.21727
1.21105
1.20053
1.18592
1.16818
1.15236
1.14112
1.1522
1.16923
1.18539
1.19722
1.20344
1.20382
1.19975
1.19231
1.18381
1.1762
1.1703
1.16383
1.15387
1.14562
1.1379
1.14532
1.15676
1.16599
1.17166
1.17549
1.17903
1.18239
1.18478
1.18539
1.18324
1.17724
1.16684
1.15372
1.14224
1.11686
1.13685
1.16088
1.18204
1.19708
1.2048
1.20575
1.19873
1.18648
1.17141
1.15524
1.13964
1.12411
1.10766
1.09445
1.08746
1.09587
1.10853
1.1182
1.12374
1.12641
1.12828
1.13009
1.13221
1.13411
1.13471
1.13297
1.12756
1.11985
1.11396
1.04031
1.0644
1.09089
1.11372
1.12981
1.13805
1.13866
1.12963
1.11406
1.09458
1.07338
1.0532
1.03487
1.01958
1.00984
1.01117
1.02532
1.04261
1.05497
1.06153
1.06283
1.06157
1.05892
1.05627
1.0538
1.05106
1.04732
1.04261
1.03764
1.03585
0.913662
0.92787
0.943875
0.958101
0.968462
0.973695
0.973133
0.965228
0.952239
0.936367
0.920104
0.906579
0.897175
0.89472
0.899638
0.917619
0.94247
0.968068
0.985923
0.995448
0.99679
0.992836
0.984963
0.974911
0.963857
0.952389
0.940852
0.930094
0.920748
0.915022
0.223263
0.23909
0.241144
0.239832
0.235023
0.227201
0.217489
0.208502
0.201223
0.200028
0.205399
0.220506
0.244752
0.285398
0.33276
0.382981
0.422423
0.45436
0.438328
0.39772
0.357941
0.324395
0.296117
0.273402
0.253517
0.2355
0.219861
0.206577
0.197208
0.193426
0.414307
0.443066
0.452797
0.451424
0.442376
0.428357
0.412476
0.398937
0.389489
0.390748
0.402588
0.429186
0.46983
0.537207
0.616007
0.688756
0.741411
0.777619
0.748334
0.684924
0.624138
0.574007
0.533538
0.499012
0.46811
0.439769
0.415273
0.393887
0.379614
0.375061
0.519053
0.549535
0.562214
0.561322
0.552418
0.538186
0.522135
0.508773
0.500446
0.504383
0.520424
0.551939
0.599016
0.673681
0.759289
0.836482
0.890066
0.922433
0.889706
0.822808
0.75737
0.702677
0.658292
0.620385
0.586099
0.554619
0.527465
0.504602
0.490397
0.488453
0.595674
0.625941
0.639183
0.638112
0.629264
0.615298
0.599951
0.587674
0.581108
0.587612
0.606732
0.641137
0.691331
0.768272
0.854188
0.930234
0.980323
1.00687
0.973445
0.908242
0.843065
0.787664
0.742201
0.703366
0.668185
0.636085
0.608341
0.585601
0.571688
0.57126
0.662119
0.691934
0.704404
0.702611
0.693432
0.679571
0.664901
0.653791
0.648944
0.657719
0.679226
0.715571
0.767568
0.845259
0.929705
1.00298
1.04853
1.0696
1.03645
0.974319
0.910952
0.856154
0.810628
0.771739
0.736497
0.704598
0.677015
0.654756
0.641117
0.641363
0.725716
0.754926
0.765755
0.762842
0.75292
0.738867
0.72467
0.71458
0.711191
0.721832
0.74513
0.782911
0.836259
0.914149
0.997063
1.06731
1.10852
1.12522
1.09291
1.03404
0.972907
0.919118
0.873867
0.835188
0.800199
0.768766
0.741593
0.71989
0.706572
0.707062
0.789936
0.818165
0.826691
0.822383
0.811383
0.796876
0.782939
0.773656
0.771419
0.783502
0.808159
0.847141
0.901736
0.979837
1.06141
1.12879
1.16634
1.17987
1.14893
1.09314
1.03419
0.981445
0.936584
0.898203
0.86367
0.832745
0.806033
0.78491
0.771937
0.772501
0.856179
0.882795
0.88851
0.882591
0.870315
0.855198
0.84137
0.832698
0.831399
0.84461
0.870389
0.910501
0.966396
1.04468
1.12501
1.18973
1.22426
1.23572
1.20667
1.15387
1.09697
1.04522
1.00082
0.962882
0.928984
0.898634
0.872437
0.851781
0.838992
0.839453
0.924312
0.948452
0.951087
0.943461
0.929878
0.914142
0.900368
0.892181
0.891683
0.905821
0.932628
0.973901
1.0311
1.10953
1.18844
1.25051
1.28256
1.29277
1.26619
1.21658
1.16185
1.1111
1.06714
1.02964
0.996462
0.966696
0.941037
0.920762
0.907983
0.908133
0.993183
1.01382
1.01342
1.00409
0.989328
0.973113
0.959465
0.951719
0.952045
0.967021
0.994905
1.03743
1.0958
1.17421
1.25129
1.3105
1.34036
1.34991
1.32635
1.28031
1.22796
1.1783
1.13477
1.09764
1.06524
1.03607
1.01097
0.991007
0.978086
0.977591
1.06092
1.07693
1.07394
1.06297
1.04732
1.03093
1.01761
1.01039
1.0117
1.02759
1.0567
1.10062
1.16004
1.23789
1.31251
1.36843
1.39622
1.40547
1.38541
1.34339
1.29377
1.24531
1.20222
1.16538
1.13358
1.10513
1.08057
1.06088
1.04771
1.04614
1.12521
1.13586
1.13062
1.11832
1.10223
1.08609
1.07346
1.06698
1.06958
1.08659
1.11719
1.16248
1.22298
1.2994
1.37084
1.4229
1.44857
1.45769
1.44146
1.40389
1.35739
1.31034
1.26771
1.23103
1.1996
1.17185
1.14774
1.12825
1.11475
1.1117
1.1837
1.18875
1.18159
1.1684
1.15243
1.1371
1.12562
1.12024
1.12459
1.14301
1.17543
1.22204
1.28358
1.35751
1.42505
1.47256
1.49598
1.50493
1.4927
1.45985
1.41689
1.37151
1.32938
1.29272
1.26139
1.23415
1.21028
1.19085
1.1769
1.17204
1.23425
1.2341
1.22535
1.2118
1.19659
1.1827
1.17292
1.16912
1.17578
1.19595
1.23012
1.27779
1.33969
1.4097
1.4724
1.51527
1.53719
1.54594
1.5376
1.50954
1.4705
1.42705
1.38551
1.34877
1.31724
1.29004
1.2662
1.24659
1.23204
1.22512
1.27514
1.27106
1.26087
1.24756
1.23383
1.22204
1.21458
1.21286
1.2218
1.24351
1.27904
1.3275
1.38863
1.45341
1.51051
1.54858
1.5697
1.57934
1.57503
1.5516
1.51669
1.47547
1.43468
1.39782
1.36585
1.33818
1.31407
1.29392
1.27854
1.26941
1.30598
1.2987
1.28762
1.2753
1.26383
1.25476
1.24963
1.24997
1.26103
1.28451
1.32134
1.37034
1.42949
1.48835
1.53949
1.57223
1.59231
1.6031
1.60313
1.58489
1.55427
1.51562
1.47579
1.43886
1.40631
1.3778
1.35305
1.3319
1.31541
1.30396
1.32688
1.31702
1.30573
1.29524
1.28642
1.27983
1.27689
1.27997
1.29334
1.3186
1.35672
1.40574
1.46169
1.51433
1.55948
1.58679
1.60574
1.61762
1.62083
1.60732
1.58134
1.54611
1.50793
1.47122
1.43812
1.40858
1.38269
1.36029
1.34235
1.32863
1.33864
1.32663
1.31582
1.30727
1.30099
1.2972
1.29695
1.30309
1.31883
1.34581
1.385
1.43295
1.48501
1.53134
1.57076
1.59293
1.61075
1.62382
1.62931
1.61941
1.59725
1.56529
1.52926
1.49348
1.46046
1.43035
1.40328
1.37947
1.3598
1.34419
1.34389
1.32954
1.31844
1.31174
1.30859
1.3078
1.31077
1.31983
1.33772
1.36629
1.40567
1.45178
1.4994
1.53948
1.57373
1.59139
1.60837
1.62264
1.62978
1.62232
1.60306
1.57379
1.53984
1.5051
1.47235
1.44193
1.41391
1.38884
1.36804
1.35201
1.34117
1.32333
1.31398
1.31075
1.3107
1.31328
1.31923
1.33088
1.35051
1.37976
1.41861
1.46225
1.50491
1.53847
1.56885
1.58292
1.59952
1.615
1.62356
1.61747
1.59943
1.57081
1.53758
1.50327
1.47063
1.44008
1.41167
1.38594
1.36452
1.34894
1.32942
1.31151
1.30582
1.30623
1.30925
1.31438
1.32332
1.33687
1.35732
1.3859
1.42252
1.46212
1.50162
1.52975
1.55675
1.56836
1.58528
1.60228
1.61195
1.60652
1.58991
1.56258
1.52977
1.49576
1.46319
1.43257
1.40387
1.37757
1.35547
1.33946
1.31272
1.29729
1.29595
1.29958
1.30563
1.31311
1.32305
1.33689
1.35687
1.38434
1.41924
1.45605
1.4901
1.51327
1.53803
1.54862
1.5667
1.58559
1.5962
1.59102
1.57485
1.54826
1.5161
1.48248
1.45013
1.41955
1.39074
1.36384
1.34073
1.32388
1.29343
1.28263
1.28517
1.2921
1.30094
1.31048
1.3211
1.33463
1.3534
1.37875
1.40976
1.44157
1.4703
1.48951
1.51328
1.52457
1.54483
1.56608
1.57761
1.57234
1.55591
1.52927
1.49714
1.46347
1.43116
1.4008
1.37228
1.34551
1.32206
1.30479
1.273
1.26795
1.274
1.28405
1.29522
1.30596
1.3166
1.32887
1.34499