/*--------------------------------*- C++ -*----------------------------------*\
| =========                 |                                                 |
| \\      /  F ield         | OpenFOAM: The Open Source CFD Toolbox           |
|  \\    /   O peration     | Version:  5.0                                   |
|   \\  /    A nd           | Web:      www.OpenFOAM.org                      |
|    \\/     M anipulation  |                                                 |
\*---------------------------------------------------------------------------*/
FoamFile
{
    version     2.0;
    format      ascii;
    class       volScalarField;
    location    "250/air";
    object      nut;
}
// * * * * * * * * * * * * * * * * * * * * * * * * * * * * * * * * * * * * * //

dimensions      [0 2 -1 0 0 0 0];

internalField   nonuniform List<scalar> 
243000
(
0.000144509
0.000143919
0.000140324
0.000135391
0.000129682
0.000123452
0.000116844
0.000110127
0.00010339
9.71899e-05
9.14504e-05
8.81934e-05
9.41873e-05
0.000108968
0.000121139
0.000131527
0.000139409
0.000144967
0.000146038
0.0001441
0.000140034
0.000136614
0.000133191
0.000129898
0.000126871
0.000124432
0.000123362
0.000123681
0.0001276
0.000132964
0.000701127
0.000709403
0.000708362
0.000702087
0.000692588
0.000679719
0.000663617
0.000645571
0.000625964
0.000608168
0.000592929
0.000593845
0.000647738
0.000730191
0.000801053
0.000860165
0.000902687
0.000929898
0.000928476
0.000905265
0.000867766
0.000831419
0.000793553
0.000756501
0.000720955
0.000689302
0.000664553
0.000646555
0.000641368
0.00064251
0.000783026
0.000791774
0.000790113
0.000782893
0.000772278
0.000758251
0.000741112
0.000722304
0.000702321
0.000685007
0.000671754
0.000678517
0.000740391
0.000821152
0.000892091
0.000951533
0.000994292
0.00102173
0.00102159
0.000999268
0.000961931
0.000924608
0.000885463
0.000847028
0.000810346
0.000777966
0.000752655
0.000734692
0.000729
0.000731542
0.000839844
0.000849639
0.000848323
0.000841233
0.000830444
0.000816138
0.00079879
0.000779904
0.000760075
0.000743522
0.000732233
0.000744725
0.000809357
0.000887163
0.000956007
0.0010139
0.0010553
0.00108174
0.00108257
0.00106186
0.0010259
0.000988898
0.000949792
0.000911208
0.000874492
0.000842277
0.000817059
0.000799443
0.000793259
0.000796705
0.000884093
0.000894796
0.000893945
0.000887146
0.000876387
0.000862034
0.000844724
0.000825983
0.00080648
0.00079075
0.000781311
0.000799096
0.000863821
0.000938153
0.0010041
0.00105972
0.00109931
0.00112444
0.00112613
0.00110736
0.0010733
0.00103728
0.000998862
0.000960746
0.000924546
0.000892901
0.000868074
0.000850866
0.000844243
0.000848083
0.000921634
0.000932924
0.00093235
0.000925716
0.000914897
0.00090044
0.000883136
0.000864521
0.000845315
0.00083032
0.00082251
0.000845001
0.000908511
0.000979115
0.00104203
0.00109526
0.00113305
0.00115697
0.00115952
0.00114285
0.00111093
0.00107624
0.00103888
0.00100159
0.000966194
0.000935309
0.000910982
0.000894159
0.000887206
0.000891104
0.000955544
0.000967125
0.000966536
0.000959808
0.000948702
0.000933942
0.000916472
0.000897837
0.000878798
0.000864371
0.00085796
0.000884482
0.00094606
0.00101299
0.001073
0.00112398
0.00116022
0.00118322
0.00118666
0.00117217
0.00114254
0.00110943
0.00107336
0.00103709
0.00100261
0.000972525
0.000948743
0.000932315
0.000925223
0.000929063
0.000987615
0.000999172
0.000998243
0.000991112
0.000979428
0.000964098
0.000946228
0.000927359
0.00090831
0.000894226
0.000889063
0.000918822
0.000978095
0.00104158
0.0010989
0.0011479
0.00118292
0.00120535
0.00120973
0.00119751
0.0011702
0.00113883
0.00110418
0.00106909
0.00103563
0.00100644
0.000983301
0.000967344
0.000960302
0.00096404
0.00101887
0.00103005
0.00102847
0.00102061
0.00100803
0.000991849
0.000973317
0.00095398
0.000934706
0.000920727
0.000916591
0.000948896
0.00100564
0.00106598
0.00112087
0.00116818
0.00120233
0.00122453
0.00122992
0.00122002
0.00119511
0.00116561
0.00113255
0.00109879
0.0010665
0.00103829
0.00101592
0.00100054
0.000993716
0.000997362
0.00104982
0.00106022
0.00105773
0.00104881
0.00103502
0.00101771
0.000998269
0.00097822
0.000958493
0.000944328
0.000941004
0.000975211
0.00102937
0.00108684
0.00113953
0.00118545
0.00121904
0.00124135
0.00124783
0.00124029
0.00121785
0.00119037
0.00115908
0.00112684
0.00109588
0.0010688
0.00104734
0.00103266
0.00102622
0.0010298
0.00108059
0.00108976
0.00108611
0.00107582
0.00106057
0.0010419
0.00102132
0.00100033
0.000979906
0.000965256
0.000962558
0.000998053
0.00104965
0.00110451
0.0011552
0.00119997
0.00123327
0.00125599
0.00126363
0.00125847
0.0012386
0.0012133
0.00118397
0.00115346
0.00112403
0.00109825
0.00107788
0.00106405
0.00105814
0.00106168
0.00111092
0.00111848
0.00111342
0.00110154
0.00108462
0.0010644
0.0010425
0.00102035
0.000998984
0.000983555
0.000981327
0.00101752
0.00106665
0.00111909
0.00116796
0.00121176
0.00124498
0.00126836
0.00127723
0.00127443
0.00125728
0.00123431
0.00120714
0.00117857
0.00115087
0.00112661
0.00110751
0.0010947
0.00108945
0.00109294
0.00114032
0.00114589
0.00113924
0.0011256
0.0011069
0.00108502
0.00106165
0.00103814
0.0010156
0.000999139
0.000997295
0.00103352
0.00108036
0.00113054
0.00117772
0.0012207
0.00125399
0.00127822
0.00128837
0.00128787
0.00127357
0.00125308
0.00122826
0.00120185
0.0011761
0.00115356
0.00113594
0.0011243
0.00111982
0.00112322
0.00116804
0.00117137
0.00116302
0.00114755
0.00112701
0.00110343
0.00107849
0.00105346
0.00102952
0.00101184
0.00101023
0.00104601
0.00109067
0.00113871
0.0011843
0.00122654
0.00125997
0.00128521
0.00129669
0.00129841
0.001287
0.00126914
0.00124686
0.0012228
0.00119922
0.00117859
0.00116262
0.00115229
0.00114868
0.00115194
0.00119319
0.0011942
0.00118409
0.00116682
0.00114448
0.0011192
0.00109263
0.00106597
0.00104045
0.00102163
0.00102027
0.00105516
0.0010976
0.00114348
0.0011875
0.001229
0.00126252
0.00128882
0.0013018
0.00130561
0.00129707
0.00128196
0.00126237
0.00124085
0.00121962
0.00120106
0.00118689
0.00117798
0.00117525
0.00117831
0.00121483
0.0012136
0.00120178
0.00118278
0.00115876
0.00113181
0.00110358
0.00107532
0.0010484
0.00103065
0.00103068
0.00106351
0.00110279
0.00114556
0.00118747
0.00122814
0.00126176
0.00128896
0.00130324
0.00130902
0.00130327
0.00129098
0.00127419
0.00125533
0.00123661
0.00122027
0.001208
0.00120054
0.00119869
0.00120144
0.00123211
0.00122879
0.00121536
0.00119474
0.00116909
0.0011407
0.00111121
0.0010825
0.00105668
0.00103979
0.00104075
0.00107144
0.00110784
0.0011479
0.0011877
0.00122609
0.00125812
0.00128524
0.00130072
0.00130827
0.0013051
0.00129578
0.00128179
0.00126564
0.00124951
0.00123548
0.00122517
0.00121918
0.00121812
0.00122045
0.00124424
0.00123904
0.00122406
0.00120214
0.00117547
0.0011465
0.00111771
0.00108968
0.00106479
0.00104863
0.00105015
0.0010787
0.00111247
0.00115007
0.00118769
0.00122407
0.00125477
0.00128089
0.0012961
0.0013037
0.00130249
0.00129562
0.00128467
0.00127135
0.00125772
0.00124599
0.00123765
0.00123308
0.0012327
0.00123451
0.0012506
0.00124365
0.00122776
0.00120553
0.00117995
0.00115188
0.00112377
0.00109639
0.00107233
0.00105682
0.00105864
0.00108505
0.00111641
0.0011517
0.00118722
0.00122174
0.00125128
0.00127645
0.00129149
0.00129949
0.00129902
0.00129329
0.00128363
0.00127191
0.00126095
0.00125138
0.0012448
0.00124151
0.00124164
0.00124288
0.00125097
0.00124371
0.00122912
0.00120818
0.00118362
0.00115645
0.00112901
0.00110228
0.00107899
0.00106409
0.00106606
0.00109032
0.00111949
0.00115243
0.00118601
0.00121879
0.00124728
0.0012715
0.00128644
0.00129487
0.0012951
0.00129053
0.0012822
0.00127223
0.00126246
0.00125366
0.00124732
0.00124415
0.00124449
0.00124515
0.00124961
0.00124295
0.00122946
0.00120967
0.00118611
0.00115987
0.00113317
0.00110713
0.00108457
0.00107028
0.00107225
0.00109437
0.00112144
0.00115203
0.00118382
0.00121497
0.00124241
0.00126573
0.00128057
0.00128937
0.00129031
0.00128686
0.00127996
0.00127144
0.00126279
0.00125488
0.00124894
0.00124571
0.00124502
0.00124456
0.00124688
0.00124057
0.00122815
0.0012097
0.00118718
0.00116195
0.00113607
0.00111078
0.00108889
0.00107525
0.0010771
0.00109706
0.00112193
0.0011505
0.00118046
0.00121002
0.00123641
0.00125886
0.00127358
0.00128262
0.00128429
0.00128191
0.00127642
0.00126927
0.00126163
0.00125447
0.00124891
0.00124558
0.00124405
0.00124265
0.00124217
0.00123604
0.00122477
0.00120777
0.00118661
0.00116258
0.00113756
0.00111309
0.00109193
0.00107891
0.00108052
0.00109824
0.00112093
0.0011476
0.00117573
0.00120373
0.00122905
0.00125063
0.00126516
0.00127433
0.00127671
0.00127535
0.00127118
0.00126529
0.0012587
0.00125228
0.00124704
0.00124345
0.00124102
0.00123874
0.00123498
0.00122915
0.00121894
0.0012036
0.00118408
0.0011615
0.00113761
0.00111401
0.00109365
0.00108121
0.00108252
0.00109783
0.00111853
0.00114313
0.00116947
0.00119591
0.00122011
0.0012408
0.00125503
0.00126419
0.00126722
0.00126681
0.00126388
0.00125916
0.00125353
0.0012478
0.00124282
0.00123883
0.00123546
0.0012323
0.00122487
0.00121957
0.00121061
0.00119696
0.00117926
0.00115841
0.0011359
0.00111353
0.0010941
0.00108215
0.00108285
0.00109611
0.00111466
0.00113706
0.00116154
0.00118642
0.00120944
0.00122916
0.00124293
0.00125192
0.00125547
0.00125594
0.00125412
0.00125049
0.00124578
0.00124066
0.00123582
0.00123135
0.00122699
0.00122288
0.00121146
0.00120699
0.00119958
0.00118779
0.00117203
0.00115311
0.00113239
0.00111153
0.00109334
0.00108205
0.00108215
0.0010933
0.00110964
0.00112977
0.00115211
0.00117532
0.00119703
0.00121562
0.0012287
0.0012373
0.00124118
0.00124239
0.00124148
0.00123884
0.00123496
0.00123037
0.00122555
0.00122051
0.00121514
0.00121006
0.00119452
0.0011913
0.00118589
0.00117626
0.00116277
0.00114612
0.00112752
0.00110881
0.00109253
0.00108228
0.0010818
0.001091
0.00110514
0.00112283
0.00114266
0.00116363
0.00118371
0.00120072
0.00121267
0.00122057
0.00122448
0.00122616
0.00122588
0.00122401
0.00122078
0.00121659
0.0012117
0.001206
0.00119954
0.00119349
0.0011746
0.00117358
0.00117099
0.00116445
0.00115423
0.00114101
0.0011261
0.0011109
0.00109765
0.00108956
0.00108917
0.00109675
0.00110865
0.00112331
0.00113977
0.0011573
0.00117443
0.00118875
0.00119852
0.00120494
0.00120815
0.00120951
0.00120924
0.00120757
0.00120457
0.00120044
0.00119526
0.0011887
0.00118096
0.00117381
0.00116812
0.00117193
0.0011747
0.00117396
0.0011702
0.00116395
0.00115623
0.00114812
0.00114117
0.00113742
0.00113835
0.00114426
0.00115255
0.0011621
0.00117234
0.00118312
0.00119363
0.00120245
0.00120809
0.0012115
0.00121273
0.0012126
0.00121109
0.0012085
0.0012046
0.00119946
0.00119299
0.00118497
0.0011756
0.00116698
0.00131287
0.00132286
0.0013316
0.00133721
0.00134075
0.00134213
0.00134186
0.00134002
0.00133709
0.00133328
0.00132909
0.00132532
0.00132159
0.00131795
0.00131366
0.00131045
0.0013089
0.00130851
0.00130885
0.00131091
0.00131408
0.0013177
0.00132122
0.0013242
0.00132611
0.00132655
0.00132516
0.00132176
0.00131661
0.00131116
0.000192682
0.000191297
0.000185556
0.000178313
0.00017009
0.000161255
0.000152083
0.000143249
0.000135135
0.000129364
0.000126675
0.000129735
0.000136813
0.000148668
0.000161469
0.000173725
0.000183636
0.000191626
0.000193132
0.000189978
0.000185615
0.000181813
0.000178291
0.000175155
0.000172406
0.00017037
0.000169759
0.000170544
0.000174262
0.000180318
0.00112797
0.00110532
0.00103478
0.000958305
0.000887593
0.000820675
0.000761538
0.00071605
0.00068357
0.000671784
0.000675787
0.000694278
0.000711807
0.000760647
0.000823432
0.000883937
0.000931487
0.000983714
0.00100577
0.000993098
0.000971066
0.000950018
0.000926159
0.000903051
0.000881645
0.000867486
0.000863709
0.000867647
0.0008759
0.000904996
0.00207577
0.00211355
0.00202285
0.00189475
0.00176418
0.00163631
0.00152102
0.00143169
0.00136774
0.00134639
0.00135625
0.00139144
0.00142819
0.00152023
0.00163858
0.00174585
0.00182318
0.00191435
0.00196921
0.0019623
0.00192849
0.00188909
0.00184006
0.00178972
0.00174221
0.00170893
0.00169514
0.00170046
0.00171858
0.00177864
0.00292198
0.00301376
0.0029246
0.00276987
0.00259859
0.00242518
0.00226589
0.00213997
0.00204892
0.00202054
0.0020377
0.00208683
0.00214652
0.00227556
0.00243898
0.002581
0.00267711
0.00279731
0.00288513
0.00289204
0.00285416
0.00280095
0.00272981
0.00265381
0.00257923
0.00252489
0.00250208
0.00250889
0.0025321
0.00261815
0.003664
0.00381333
0.0037231
0.00354856
0.00335321
0.00315206
0.00296404
0.00281313
0.00270503
0.00267766
0.00270184
0.00275746
0.00283686
0.00299565
0.0031903
0.00335699
0.00346705
0.00360783
0.00372388
0.00374759
0.0037098
0.00364609
0.003556
0.00345686
0.00336634
0.00330089
0.00327142
0.00327999
0.00330593
0.00341236
0.00434411
0.00449717
0.00440434
0.00422752
0.00402396
0.00380943
0.00360586
0.00344124
0.00332365
0.0032966
0.0033311
0.00339717
0.00348464
0.00366517
0.00387862
0.00406118
0.00418299
0.00433686
0.00447353
0.00451497
0.00448082
0.00440816
0.00431036
0.00420806
0.00411316
0.00404341
0.00400745
0.00400581
0.00402336
0.00412981
0.00494578
0.00508597
0.00498778
0.00481612
0.00461454
0.00439735
0.00418907
0.00402033
0.00390008
0.00387613
0.00391396
0.00399214
0.00408881
0.004273
0.00449549
0.00468602
0.00481818
0.00497898
0.00512692
0.00518461
0.00516804
0.00510957
0.00501579
0.00490273
0.00479447
0.00470999
0.00465877
0.00464626
0.00466468
0.0047688
0.00547921
0.00559446
0.00548886
0.00532685
0.00513246
0.00491857
0.00471325
0.0045476
0.00443038
0.00440924
0.00445113
0.00452799
0.00462851
0.0048202
0.00503634
0.00522841
0.00536791
0.00553382
0.00568564
0.00576739
0.00575892
0.00570235
0.0056069
0.00549224
0.00538063
0.00529188
0.00523692
0.00522204
0.00524058
0.00533571
0.00595232
0.00603486
0.00592343
0.00577258
0.00558446
0.00537757
0.00517984
0.00502117
0.00491144
0.00489145
0.00493426
0.00500681
0.00510335
0.00529104
0.00549971
0.0056891
0.00583422
0.0060041
0.00615336
0.00625111
0.00625668
0.00620741
0.0061172
0.00600701
0.00589763
0.00580909
0.00575318
0.00573642
0.005754
0.0058363
0.00637159
0.0064167
0.00630512
0.00616021
0.00597755
0.00577917
0.00559131
0.00544094
0.00534084
0.0053193
0.00535899
0.00542575
0.00551348
0.00569169
0.00588747
0.00607144
0.00622151
0.00639356
0.00653995
0.0066506
0.00667051
0.00663201
0.00655223
0.00645139
0.00634901
0.00626468
0.00621063
0.00619332
0.00620928
0.00627715
0.00674125
0.00674788
0.00663948
0.00649525
0.00631725
0.00612739
0.00594977
0.00580818
0.0057163
0.00569117
0.00572394
0.00578275
0.00585953
0.0060233
0.00620322
0.00638013
0.00653498
0.00670749
0.00685282
0.00697197
0.00700811
0.00698331
0.00691773
0.00683009
0.00673865
0.00666195
0.00661239
0.00659624
0.0066105
0.00666371
0.00706276
0.00703305
0.00692708
0.00678116
0.00660687
0.00642483
0.00625673
0.00612303
0.00603704
0.00600627
0.00602882
0.00607737
0.00614286
0.00628858
0.00645111
0.00661992
0.00677914
0.00695159
0.00709849
0.00722085
0.00727563
0.00726708
0.00721841
0.00714695
0.0070695
0.00700324
0.00696051
0.00694718
0.00696009
0.00699904
0.00733464
0.00727391
0.0071661
0.00701872
0.00684764
0.00667261
0.00651274
0.00638529
0.00630208
0.00626447
0.00627355
0.00631033
0.00636504
0.0064904
0.00663499
0.00679495
0.00695703
0.00713083
0.00728013
0.00740351
0.00747701
0.00748691
0.00745718
0.00740408
0.00734301
0.00728939
0.00725532
0.0072462
0.00725822
0.00728367
0.00755245
0.00746795
0.00735605
0.0072072
0.00703917
0.00687045
0.00671743
0.00659419
0.00650998
0.00646558
0.00645756
0.00648235
0.00652715
0.00663114
0.00675798
0.00690846
0.0070711
0.0072482
0.00739943
0.00752487
0.00761416
0.00764443
0.00763513
0.00760196
0.00755895
0.00751961
0.00749554
0.00749157
0.00750302
0.00751596
0.00770927
0.00761463
0.00749505
0.00734474
0.00717994
0.0070171
0.00686966
0.0067485
0.00666073
0.00660572
0.00657836
0.0065929
0.00662841
0.00671201
0.00682206
0.00696273
0.0071239
0.00730433
0.00745827
0.00758805
0.00768723
0.00773976
0.00775204
0.00773979
0.0077159
0.00769197
0.00767876
0.00768047
0.00769151
0.00769265
0.00780539
0.00770765
0.00757997
0.00742888
0.00726772
0.00711058
0.00696765
0.00684591
0.00675154
0.0066783
0.0066281
0.00663767
0.00666395
0.00673164
0.0068275
0.00695874
0.007117
0.00729827
0.0074586
0.00759307
0.0076979
0.00777228
0.00780698
0.00781618
0.00781192
0.00780403
0.0078021
0.00780971
0.00782035
0.00781037
0.00784295
0.00774024
0.00760746
0.0074567
0.00729952
0.00714794
0.00700857
0.00688123
0.00676569
0.00667607
0.00660648
0.00660872
0.006619
0.00666768
0.00675017
0.00688042
0.0070455
0.007231
0.00739741
0.00753896
0.00764828
0.00774118
0.00779875
0.00782959
0.00784507
0.00785349
0.007863
0.00787642
0.00788672
0.0078666
0.00782006
0.0077118
0.00757437
0.00742375
0.00726991
0.00712262
0.00697435
0.00683396
0.00670343
0.00660176
0.00651666
0.00650795
0.00649927
0.00652742
0.00659367
0.00671628
0.00688101
0.00707768
0.00725918
0.00742233
0.00753935
0.00764493
0.00772538
0.00777836
0.00781357
0.00783842
0.0078597
0.00787877
0.00788901
0.00786076
0.00773757
0.0076227
0.00748185
0.0073314
0.00716696
0.00700808
0.0068534
0.00670667
0.0065679
0.00645947
0.00636313
0.00633913
0.00631183
0.0063189
0.0063668
0.00647712
0.00663657
0.0068423
0.00703162
0.0072051
0.0073445
0.00747203
0.00758145
0.00765942
0.00771482
0.00775642
0.00779105
0.0078162
0.00782713
0.00779563
0.00760138
0.00748117
0.00732648
0.00716364
0.00699351
0.00682777
0.00666721
0.00651149
0.0063671
0.00625473
0.00615002
0.00610893
0.00606475
0.00605094
0.00607983
0.00617496
0.0063306
0.00652588
0.00671439
0.00689598
0.00705569
0.00720397
0.00733198
0.00743745
0.00752619
0.00759807
0.0076537
0.00768877
0.00770157
0.00767952
0.00739348
0.00725121
0.00709354
0.00692968
0.00675679
0.00658716
0.00642488
0.00626402
0.00611142
0.00599524
0.00588272
0.00582507
0.00576642
0.00573306
0.00574376
0.0058223
0.00596499
0.00614675
0.00632899
0.00651129
0.0066842
0.0068487
0.0069914
0.00711634
0.00722177
0.00730979
0.00738046
0.00742782
0.00745208
0.00745299
0.0070578
0.00690306
0.00675666
0.0066092
0.00645092
0.00629058
0.00613113
0.00596796
0.00580933
0.00568878
0.00556752
0.00549575
0.00542582
0.00537595
0.00537029
0.00543222
0.00556046
0.00572387
0.00589356
0.0060691
0.00624746
0.00642118
0.00657647
0.00671489
0.00683895
0.00694154
0.0070218
0.00707819
0.0071128
0.00713049
0.00663075
0.00647901
0.0063475
0.00621907
0.00608129
0.00594233
0.00578895
0.00562464
0.00546875
0.0053407
0.00521145
0.00512946
0.00505225
0.00499074
0.00497191
0.00501854
0.0051312
0.00527381
0.00542578
0.00558794
0.00576286
0.00593864
0.00610173
0.00624761
0.00638222
0.00649678
0.00658522
0.00664698
0.00668551
0.00671253
0.00613282
0.00599793
0.00588796
0.0057785
0.00567232
0.00554518
0.00539727
0.00524096
0.00509351
0.00495699
0.00482235
0.00473438
0.00465486
0.00458933
0.00456142
0.00459682
0.00469211
0.00481368
0.00494384
0.00508714
0.00524957
0.00541932
0.00558345
0.00573093
0.00586947
0.00598931
0.00608236
0.00614607
0.00618597
0.00621674
0.00558463
0.00547734
0.00539237
0.00531192
0.00521625
0.00510296
0.00497031
0.00482617
0.00468353
0.00454418
0.00441106
0.00431998
0.00424497
0.00418477
0.00415394
0.00418232
0.00426389
0.00436322
0.00446813
0.0045889
0.00472909
0.00488331
0.00503935
0.00518188
0.00531777
0.00543705
0.00553009
0.00559527
0.00563445
0.00566365
0.00500444
0.00493237
0.00487085
0.0048074
0.00472866
0.00463031
0.00451264
0.00438125
0.00424735
0.00411458
0.00399257
0.00390745
0.00384184
0.00379554
0.00377197
0.00379884
0.00386755
0.00394896
0.00403108
0.00412281
0.00423179
0.00435753
0.0044915
0.00462066
0.00474317
0.0048506
0.00493639
0.0049988
0.00504093
0.00507179
0.0044096
0.00436471
0.00432854
0.00428469
0.00422143
0.00413861
0.00403934
0.00392713
0.00381204
0.00369958
0.00360067
0.00353205
0.00348478
0.00345643
0.00344914
0.00347852
0.00353867
0.00360525
0.00366433
0.00372882
0.00380117
0.00388835
0.00398397
0.00408077
0.00417609
0.00426317
0.0043361
0.00438732
0.00442132
0.00444801
0.0038186
0.00380043
0.00379035
0.00376925
0.003728
0.00367013
0.00359938
0.00351783
0.00343446
0.00335579
0.00328837
0.00323831
0.00321095
0.00320095
0.00321129
0.00326104
0.00332705
0.00338964
0.00343373
0.00347419
0.00350305
0.00352909
0.00356663
0.00361636
0.00366753
0.00372206
0.00377508
0.00380668
0.00382502
0.00384084
0.00325087
0.00327185
0.00329175
0.0032985
0.00328745
0.00326202
0.00322836
0.00318668
0.00313967
0.00309603
0.00306336
0.00305
0.0030506
0.00306534
0.00309637
0.00315973
0.00322876
0.0032919
0.00333268
0.00336246
0.00337123
0.00336644
0.0033561
0.00334648
0.00333419
0.00331892
0.00330028
0.00328761
0.00326947
0.00325764
0.00306616
0.00307773
0.00307652
0.00307196
0.00306502
0.00305754
0.00304968
0.00303707
0.00302335
0.0030117
0.00300692
0.00301607
0.00303808
0.00307882
0.00313851
0.00322565
0.00331373
0.00339459
0.0034488
0.00348174
0.0034849
0.00346456
0.00342793
0.00338335
0.00333468
0.00328476
0.00323458
0.00318838
0.00314136
0.00308917
0.000224282
0.000223117
0.000216617
0.000208402
0.000199058
0.000189076
0.000178912
0.000169575
0.000161555
0.000156789
0.000155873
0.000159875
0.000167324
0.000179536
0.000193159
0.000206555
0.000217479
0.000226782
0.000227198
0.000222111
0.000216497
0.000211933
0.000208224
0.000205373
0.000203045
0.000201336
0.000200809
0.000201476
0.000204586
0.000210667
0.00152139
0.00155394
0.00147938
0.00138357
0.00128802
0.00119504
0.00111302
0.00105158
0.0010089
0.00099669
0.00100497
0.00103384
0.00106648
0.00113762
0.00122787
0.00130929
0.00136392
0.00143005
0.00144601
0.00141248
0.00137583
0.00134758
0.00132047
0.00129202
0.00126274
0.00124082
0.00123167
0.00123113
0.00122917
0.00125978
0.00290507
0.00302534
0.0029332
0.00276893
0.00259547
0.00242361
0.00227129
0.00215853
0.00208174
0.00206857
0.00209258
0.00214665
0.00219884
0.00232054
0.00247552
0.00260143
0.00267248
0.00277729
0.00282526
0.00279723
0.00275355
0.00271435
0.00266835
0.00261368
0.00255395
0.00250666
0.00248374
0.002483
0.00249017
0.00256251
0.00415087
0.00433695
0.00424249
0.00403747
0.00381399
0.00358891
0.00338812
0.00323883
0.0031386
0.00312951
0.00316844
0.00323885
0.00330476
0.0034611
0.00365291
0.00380029
0.0038719
0.00400303
0.00408495
0.00408012
0.00404765
0.00401006
0.00395468
0.0038814
0.00379706
0.0037269
0.00368732
0.00368353
0.00370657
0.00381654
0.00527172
0.00548596
0.00537321
0.00514933
0.00490149
0.00464882
0.00442089
0.0042512
0.00413778
0.00413275
0.00418318
0.00426236
0.00433558
0.00451217
0.00472088
0.00487696
0.00494896
0.00509816
0.0052119
0.00523662
0.00522253
0.00519108
0.00513195
0.00504652
0.00494386
0.00485485
0.0048039
0.00480151
0.00483462
0.00497137
0.00626986
0.00646981
0.00633998
0.00610872
0.00585805
0.00559566
0.00535775
0.0051823
0.00506659
0.00507106
0.00512674
0.00519853
0.005271
0.0054572
0.00566919
0.00582558
0.00590273
0.00606187
0.00620239
0.00625889
0.00626661
0.00624017
0.00617786
0.00609848
0.00600345
0.00592059
0.00587386
0.00587083
0.00588909
0.00601332
0.00713562
0.00730269
0.00715718
0.0069346
0.00669046
0.00643161
0.00619521
0.00602331
0.00591099
0.00591837
0.00597287
0.00604828
0.0061213
0.00629025
0.00649545
0.006648
0.0067332
0.00689516
0.00705387
0.00714149
0.00718931
0.00719446
0.00714745
0.00705696
0.00694616
0.00684815
0.006787
0.00677656
0.00680201
0.0069243
0.00788638
0.00801089
0.00785252
0.00764737
0.00741319
0.00716225
0.00693491
0.00677098
0.00666503
0.00667159
0.00672421
0.0067889
0.00684861
0.00701044
0.00720408
0.00735017
0.00744441
0.00760668
0.00779152
0.00790718
0.00796472
0.00797741
0.00793288
0.00784579
0.00773979
0.00764538
0.00758572
0.00757379
0.00760345
0.00771458
0.00853897
0.00861623
0.00845148
0.00826422
0.00803718
0.00779713
0.00758196
0.0074272
0.00732897
0.00733085
0.00737736
0.00743333
0.00747574
0.00762517
0.00780464
0.00794651
0.00804982
0.00821221
0.00840381
0.00854034
0.00861444
0.00863451
0.008598
0.0085202
0.0084238
0.0083369
0.00828166
0.0082712
0.00830273
0.00839943
0.00910753
0.00913435
0.00897662
0.00879553
0.00857506
0.00834608
0.00814326
0.00799675
0.00790612
0.00789966
0.00793698
0.0079832
0.00800996
0.00814455
0.00830868
0.00844777
0.00856237
0.00872661
0.00891963
0.00907209
0.00915673
0.00918457
0.00915852
0.00909313
0.00900943
0.00893339
0.00888579
0.00887927
0.00891173
0.00899354
0.00960181
0.00958007
0.0094335
0.0092518
0.0090365
0.00881738
0.00862542
0.00848553
0.00840061
0.00838332
0.00840914
0.00844382
0.00845867
0.00857821
0.00872662
0.00886446
0.00899141
0.00915943
0.00934968
0.00951448
0.00960752
0.0096431
0.00962841
0.00957703
0.00950799
0.00944509
0.00940762
0.00940714
0.00944071
0.00950816
0.0100259
0.00996218
0.00982253
0.00963863
0.00942725
0.00921642
0.00903343
0.00889851
0.00881627
0.00878673
0.00879974
0.00882214
0.00882778
0.0089327
0.00906571
0.00920323
0.00934316
0.00951606
0.00970135
0.00987637
0.00997707
0.0100205
0.0100175
0.0099809
0.00992764
0.00987899
0.00985324
0.00986031
0.00989573
0.00994964
0.0103778
0.0102825
0.0101432
0.00995745
0.00974938
0.00954563
0.00936979
0.00923804
0.00915614
0.00911334
0.00911278
0.00912302
0.00912187
0.00921065
0.00932916
0.00946642
0.00961973
0.00979775
0.009978
0.0101615
0.0102699
0.0103218
0.0103306
0.010309
0.0102721
0.0102385
0.0102248
0.0102402
0.010278
0.0103197
0.0106497
0.0105404
0.0103947
0.0102069
0.0100021
0.00980477
0.0096347
0.00950446
0.00942117
0.0093644
0.0093498
0.00934826
0.00934148
0.00941193
0.00951623
0.00965248
0.00981922
0.0100022
0.0101791
0.010369
0.0104858
0.0105469
0.0105679
0.0105615
0.010541
0.0105227
0.0105217
0.0105454
0.0105855
0.0106161
0.0108406
0.0107291
0.0105731
0.0103836
0.0101827
0.00999165
0.00982625
0.00969639
0.00961
0.00953852
0.0095093
0.00949634
0.00948301
0.00953255
0.0096221
0.00975631
0.00993649
0.0101244
0.0103017
0.0104938
0.0106207
0.0106923
0.0107261
0.0107351
0.0107311
0.0107281
0.0107398
0.0107723
0.0108152
0.0108354
0.0109532
0.0108357
0.0106724
0.010483
0.0102872
0.0101027
0.00994095
0.00981056
0.00971736
0.00962706
0.00958123
0.00955704
0.00953361
0.00956055
0.00963474
0.00976701
0.00996178
0.0101587
0.0103395
0.0105311
0.0106687
0.0107519
0.0107997
0.0108246
0.0108372
0.0108494
0.0108739
0.0109155
0.0109619
0.0109732
0.0109823
0.0108555
0.010687
0.0104998
0.0103103
0.0101329
0.00997163
0.00983469
0.00973309
0.00962525
0.00956381
0.00952909
0.00948865
0.00949282
0.00955016
0.00967684
0.00987977
0.0100931
0.0102835
0.0104761
0.0106234
0.0107189
0.0107819
0.0108236
0.0108532
0.0108811
0.0109185
0.0109696
0.0110209
0.0110261
0.0109246
0.0107838
0.0106096
0.0104269
0.0102436
0.0100674
0.00990581
0.00976398
0.0096538
0.00953009
0.00945442
0.00940719
0.00934557
0.00932744
0.00936673
0.0094853
0.00969294
0.00991961
0.0101218
0.0103131
0.0104705
0.0105848
0.010666
0.0107252
0.0107724
0.010817
0.0108683
0.0109298
0.0109885
0.0109943
0.0107811
0.0106278
0.0104459
0.010255
0.0100688
0.00989837
0.00974027
0.00959556
0.00947563
0.00933849
0.00925075
0.00918431
0.00910294
0.00906354
0.00908418
0.00919341
0.00940545
0.00964056
0.00985404
0.0100443
0.0101982
0.0103279
0.0104284
0.0105113
0.0105834
0.0106503
0.0107178
0.0107918
0.0108617
0.0108861
0.0105699
0.0103928
0.0101985
0.00999875
0.00980725
0.00963196
0.00947326
0.00932815
0.00919497
0.00904784
0.00894653
0.0088588
0.00876139
0.00870222
0.00870532
0.00881101
0.0090244
0.00926456
0.00948485
0.00967342
0.00981409
0.00993573
0.0100544
0.0101563
0.0102486
0.0103347
0.0104195
0.0105073
0.0105917
0.010652
0.0102137
0.0100035
0.00981442
0.00963703
0.00945115
0.00927537
0.00910972
0.00896
0.00881137
0.00865708
0.00853815
0.00843161
0.00832394
0.00824076
0.00823748
0.00834925
0.008563
0.00880613
0.00902935
0.00920821
0.00933767
0.00944798
0.009566
0.00968296
0.00979106
0.009892
0.00999214
0.0100969
0.0102029
0.0102947
0.00970209
0.00948593
0.00931006
0.00914677
0.00898539
0.00881924
0.0086498
0.00849078
0.00832724
0.0081659
0.00803131
0.00790994
0.0077939
0.00770582
0.00770621
0.00782636
0.00804169
0.00828718
0.00850683
0.00866996
0.00878521
0.00887753
0.00897379
0.00909409
0.00921528
0.00933542
0.00945495
0.00957493
0.00969491
0.00980802
0.00906062
0.00886027
0.00870395
0.00855437
0.00841493
0.00825664
0.00809205
0.00792465
0.00775078
0.00758241
0.00743724
0.00730696
0.00718772
0.00711607
0.0071359
0.00726786
0.00748907
0.00773679
0.00794596
0.00808941
0.00818446
0.00825279
0.00832035
0.00840696
0.00853068
0.00865829
0.00879088
0.00892375
0.00905448
0.00917948
0.00830488
0.00813664
0.00800056
0.00787261
0.00774525
0.00760169
0.00744205
0.00727227
0.0070955
0.00692398
0.00677499
0.00664671
0.00654032
0.00651006
0.00655834
0.00670691
0.00693891
0.00718792
0.00738383
0.00750538
0.00757389
0.00761306
0.00764523
0.00768858
0.00776349
0.00788542
0.00801805
0.00815695
0.00829262
0.00842249
0.00745997
0.00732904
0.00721387
0.00711213
0.00700194
0.00687044
0.00672016
0.00655601
0.00638516
0.00622064
0.00607498
0.0059658
0.00591263
0.00592286
0.00600712
0.00618095
0.00642601
0.0066775
0.00686128
0.00696141
0.00699972
0.00700446
0.00699726
0.00699211
0.00700969
0.00706222
0.00716627
0.00730155
0.00743082
0.00755853
0.00655785
0.00646139
0.00637265
0.00629605
0.00620895
0.00609619
0.00596137
0.00581351
0.00565654
0.00551088
0.00540144
0.00534536
0.00533971
0.00539029
0.00551593
0.00572453
0.00598802
0.00624365
0.0064209
0.00650504
0.00651224
0.00647706
0.00642508
0.00637121
0.00633146
0.00631699
0.00633632
0.00639873
0.00650311
0.00662494
0.00563649
0.00556466
0.00551284
0.00546341
0.00540045
0.00531649
0.00520852
0.00509335
0.00498613
0.00489509
0.00483404
0.00481892
0.00485114
0.00494457
0.00511847
0.00537276
0.00566333
0.00593409
0.00611448
0.00619118
0.00616997
0.00609069
0.005984
0.00587476
0.00577775
0.00570721
0.00565628
0.00563682
0.00564801
0.00567964
0.00492042
0.0048622
0.00482036
0.00477868
0.00472853
0.00466946
0.00460471
0.00452972
0.00445972
0.0044059
0.00438313
0.00440402
0.00447719
0.00462362
0.00485876
0.00518
0.00551668
0.00582637
0.00602953
0.00610866
0.00606216
0.0059353
0.00576684
0.00559056
0.00542426
0.00528202
0.00516832
0.00508405
0.00502418
0.00497413
0.00447088
0.00440746
0.00435449
0.0043054
0.00425597
0.00420816
0.00416409
0.00411437
0.00407874
0.00406487
0.00408538
0.00415481
0.00428485
0.00450982
0.00483896
0.00525645
0.00567044
0.00605333
0.00630907
0.00641609
0.00636803
0.00621208
0.0059854