/*--------------------------------*- C++ -*----------------------------------*\
| =========                 |                                                 |
| \\      /  F ield         | OpenFOAM: The Open Source CFD Toolbox           |
|  \\    /   O peration     | Version:  5.0                                   |
|   \\  /    A nd           | Web:      www.OpenFOAM.org                      |
|    \\/     M anipulation  |                                                 |
\*---------------------------------------------------------------------------*/
FoamFile
{
    version     2.0;
    format      ascii;
    class       volScalarField;
    location    "1550/air";
    object      alphat;
}
// * * * * * * * * * * * * * * * * * * * * * * * * * * * * * * * * * * * * * //

dimensions      [1 -1 -1 0 0 0 0];

internalField   nonuniform List<scalar> 
243000
(
0.000164861
0.000168316
0.000165271
0.000160291
0.000154076
0.000147216
0.000140083
0.000132959
0.000126036
0.000119497
0.000113417
0.000107839
0.000102735
9.81706e-05
9.41713e-05
9.08878e-05
8.8464e-05
8.71646e-05
8.70501e-05
8.79076e-05
8.91886e-05
9.02365e-05
9.04644e-05
8.94782e-05
8.72454e-05
0.000381934
0.000379457
0.000366875
0.000329242
0.000342651
0.000715254
0.000758336
0.000768335
0.000767497
0.00075974
0.000747169
0.000731295
0.000713219
0.00069367
0.000673268
0.000652291
0.000631071
0.000609733
0.00058899
0.000569387
0.000551961
0.000537644
0.000528229
0.000523842
0.000523224
0.00052329
0.000520731
0.000512605
0.000497343
0.000475154
0.000449651
0.00041377
0.000378297
0.000340685
0.000324036
0.000769406
0.000812193
0.000825254
0.000825629
0.000818226
0.000805553
0.000789251
0.000770486
0.000750038
0.000728629
0.000706575
0.000684313
0.000662078
0.000640725
0.000620905
0.000603777
0.0005903
0.000582163
0.000579067
0.000579387
0.00057998
0.000577726
0.000569746
0.000554388
0.000531641
0.000502077
0.000466499
0.000423874
0.000380736
0.000348095
0.000790761
0.000835685
0.000852467
0.000856176
0.000851286
0.000840602
0.00082576
0.000807973
0.000788104
0.000766976
0.000745011
0.000722785
0.000700633
0.000679555
0.000660318
0.000644205
0.000632171
0.000625661
0.000623828
0.000624697
0.000625242
0.000622677
0.000614422
0.000598907
0.000575952
0.000545831
0.000509456
0.000464975
0.000418788
0.000379643
0.000790878
0.000836134
0.000859473
0.000868462
0.000867376
0.000859842
0.000847497
0.000831639
0.000813245
0.000793213
0.000772098
0.000750605
0.000729189
0.000708984
0.000690854
0.000676197
0.00066592
0.000661124
0.000660437
0.000661613
0.000661863
0.000658742
0.000650044
0.000634377
0.000611478
0.000581506
0.000545262
0.00050094
0.000453156
0.000410709
0.000777865
0.000824201
0.000853097
0.000867472
0.000871273
0.000867602
0.00085841
0.000845074
0.000828725
0.000810337
0.000790584
0.000770299
0.000750064
0.000731146
0.000714459
0.000701534
0.00069317
0.000690069
0.000690385
0.000691743
0.000691611
0.000687858
0.000678668
0.000662861
0.000640165
0.000610702
0.000575122
0.000531853
0.000483578
0.000439377
0.000753533
0.00080314
0.000837343
0.00085724
0.000866107
0.000866896
0.000861174
0.000850548
0.000836658
0.000820332
0.000802324
0.000783588
0.000764841
0.0007475
0.000732479
0.000721457
0.000715057
0.000713575
0.000714773
0.000716257
0.000715736
0.000711372
0.000701701
0.000685772
0.00066336
0.000634573
0.000599926
0.000558094
0.000510292
0.000465149
0.000720123
0.000774573
0.000814245
0.000839767
0.000853923
0.000859237
0.000857447
0.00085027
0.000838915
0.000824598
0.000808623
0.0007917
0.000774669
0.000759081
0.000745893
0.000736868
0.000732414
0.000732447
0.000734431
0.000736027
0.00073516
0.00073026
0.000720164
0.000704147
0.000682053
0.000654009
0.000620426
0.000580301
0.000533588
0.00048817
0.000682232
0.000740975
0.000785908
0.000816853
0.000836274
0.000846185
0.000848449
0.000844746
0.000836365
0.00082475
0.000810692
0.000795575
0.000780418
0.000766704
0.000755441
0.000748445
0.000745885
0.000747294
0.000749996
0.000751718
0.000750581
0.00074525
0.000734818
0.000718766
0.000697018
0.000669739
0.000637362
0.000598665
0.000553372
0.000508509
0.000644998
0.000706727
0.000755588
0.000790446
0.000814613
0.000828987
0.000835292
0.000835225
0.000829966
0.000820985
0.000809279
0.000796234
0.000782816
0.000771021
0.000761706
0.000756709
0.000755952
0.000758611
0.000761967
0.000763846
0.000762535
0.000756898
0.000746242
0.000730225
0.000708865
0.000682451
0.000651015
0.000613586
0.000570094
0.000526307
0.000611136
0.000671534
0.000724185
0.0007634
0.000791123
0.000808921
0.000819036
0.000822515
0.000820474
0.00081424
0.000804914
0.000793931
0.000782541
0.000772568
0.00076516
0.000762086
0.000762996
0.000766791
0.000770755
0.000772826
0.000771449
0.000765641
0.000754889
0.000739003
0.000718148
0.0006924
0.000661793
0.000625529
0.000584143
0.000541678
0.000586037
0.000636377
0.000691209
0.000734976
0.00076684
0.000788045
0.000800876
0.000807458
0.000808521
0.000805057
0.000798159
0.000789307
0.000779843
0.000771738
0.000766174
0.000764908
0.000767329
0.000772161
0.000776695
0.000779
0.000777668
0.000771833
0.000761126
0.000745527
0.000725097
0.000699966
0.00067009
0.000634852
0.000595772
0.000554847
0.000576689
0.000604895
0.000657039
0.000704704
0.000741157
0.00076633
0.000782322
0.000791295
0.00079479
0.000793949
0.000789449
0.00078274
0.000775197
0.000768884
0.000765064
0.00076545
0.000769216
0.000774984
0.000780076
0.000782657
0.000781473
0.000775758
0.000765303
0.000750003
0.000730005
0.00070545
0.000676233
0.000642011
0.000605275
0.000565984
0.000589038
0.000585194
0.000624253
0.000672736
0.000713632
0.000743296
0.000762976
0.000774763
0.000780426
0.000781502
0.000779211
0.000774575
0.000768909
0.000764307
0.000762103
0.000763964
0.000768902
0.000775499
0.000781138
0.000784055
0.000783079
0.000777658
0.0007675
0.000752593
0.000733089
0.000709098
0.000680528
0.000648129
0.000613233
0.000575415
0.000621977
0.000588677
0.000600451
0.000641169
0.000684405
0.000718604
0.000742477
0.000757547
0.000765727
0.000768704
0.000767955
0.000765164
0.000761257
0.000758261
0.000757535
0.000760676
0.000766611
0.000773916
0.000780083
0.000783405
0.000782694
0.000777506
0.000767725
0.000753347
0.000734474
0.000711111
0.000683386
0.000653031
0.000619829
0.000583341
0.000668644
0.000621418
0.000597613
0.000616431
0.000655243
0.000692415
0.000720576
0.000739378
0.000750462
0.000755626
0.000756518
0.000754934
0.000752535
0.000750994
0.000751569
0.000755793
0.000762552
0.000770453
0.000777133
0.000780907
0.000780581
0.000775848
0.000766476
0.0007526
0.000734296
0.000711649
0.000685614
0.000656953
0.000625236
0.000589927
0.000720497
0.000672818
0.000626372
0.000610119
0.000631522
0.000666254
0.000697471
0.00072011
0.000734449
0.00074211
0.00074486
0.000744565
0.000743105
0.00074276
0.000744413
0.000749516
0.000756929
0.000765323
0.000772484
0.000776751
0.000776917
0.000772727
0.000763955
0.000750656
0.000732979
0.000711381
0.000687099
0.000659974
0.00062957
0.000595288
0.000769536
0.00072828
0.000677347
0.000633396
0.000623202
0.000644528
0.000674483
0.000699972
0.000717622
0.000728038
0.000732876
0.000734065
0.000733545
0.000733857
0.000736301
0.000742058
0.000749956
0.000758738
0.000766335
0.000771126
0.000771879
0.000768318
0.000760296
0.000747682
0.000730744
0.000710727
0.000687958
0.000662189
0.000632926
0.000599518
0.000817284
0.000781223
0.000734334
0.000680624
0.000640479
0.000635071
0.000655034
0.000680042
0.000700212
0.000713393
0.000720494
0.000723343
0.000723943
0.00072472
0.000727523
0.000733662
0.000741865
0.000750926
0.000758906
0.000764231
0.000765649
0.000762813
0.00075561
0.000743848
0.000728272
0.000709718
0.000688278
0.000663691
0.000635393
0.000602693
0.000863632
0.000830338
0.000788756
0.000736737
0.000681457
0.000646488
0.000644983
0.000662842
0.000683054
0.000698385
0.000707724
0.000712355
0.000714216
0.000715648
0.000718532
0.00072464
0.000732921
0.000742134
0.00075043
0.000756284
0.000758422
0.00075639
0.000750098
0.000739627
0.000725594
0.000708419
0.000688155
0.000664587
0.00063707
0.000604883
0.000908451
0.000876994
0.000839461
0.000791913
0.000734203
0.000679492
0.000650978
0.000652557
0.000667937
0.000683641
0.000694749
0.000701123
0.00070433
0.000706567
0.000709706
0.000715478
0.000723481
0.000732675
0.000741192
0.000747532
0.000750416
0.000749264
0.00074424
0.000735356
0.000722808
0.000706934
0.000687744
0.000665017
0.000638089
0.000606206
0.000951532
0.000921696
0.000886931
0.000843261
0.000788256
0.00072601
0.000675143
0.000653917
0.000657742
0.000670402
0.000682034
0.000689806
0.000694327
0.00069746
0.000701004
0.000706633
0.000714309
0.000723212
0.000731792
0.000738558
0.000742287
0.000742254
0.000738521
0.00073112
0.000720018
0.000705398
0.000687193
0.000665151
0.000638621
0.000606818
0.000992849
0.000965184
0.000931944
0.000890829
0.000839154
0.000776554
0.000713058
0.000669542
0.000655663
0.000660582
0.000670467
0.000678794
0.000684381
0.000688406
0.000692465
0.000698115
0.000705574
0.000714236
0.000722831
0.000729965
0.000734455
0.000735506
0.000733017
0.000727028
0.000717358
0.000703989
0.000686724
0.00066522
0.000638885
0.000606907
0.00103328
0.00100605
0.000973756
0.000934435
0.000885677
0.000825427
0.000757472
0.000697758
0.000664183
0.000656512
0.000661484
0.000668868
0.000674951
0.000679717
0.000684337
0.000690141
0.000697483
0.000705948
0.000714514
0.000721958
0.000727129
0.00072921
0.000727914
0.00072329
0.000715046
0.00070295
0.000686595
0.000665591
0.000639226
0.000606788
0.00106968
0.00104317
0.00101195
0.000974282
0.000928035
0.000870901
0.000803289
0.000734843
0.000684068
0.000660844
0.000657326
0.000661664
0.000667254
0.000672427
0.000677587
0.000683657
0.000690967
0.000699268
0.000707754
0.000715372
0.000721083
0.000724074
0.000723896
0.000720565
0.000713615
0.000702707
0.000687363
0.000666854
0.000640327
0.000607012
0.00110432
0.00107846
0.00104824
0.00101216
0.000968344
0.000914584
0.000849793
0.000778751
0.000716215
0.000677461
0.000662576
0.000661283
0.000665096
0.000670235
0.000675931
0.000682417
0.000689779
0.00069786
0.000706062
0.000713537
0.000719381
0.000722864
0.000723542
0.000721164
0.000715318
0.000705518
0.000691057
0.000670888
0.000643723
0.000608807
0.0011405
0.00111573
0.00108693
0.00105282
0.00101189
0.000962278
0.000902368
0.000833927
0.000766825
0.000716341
0.000689628
0.000681028
0.000681826
0.000686658
0.000693145
0.000700261
0.000707529
0.000714919
0.00072205
0.000728347
0.000733175
0.000735984
0.000736398
0.000734042
0.000728452
0.000719025
0.000704849
0.000684367
0.000655902
0.000617903
0.00118634
0.00116365
0.00113747
0.00110709
0.00107156
0.0010295
0.000979296
0.000921039
0.000860112
0.000808495
0.000776243
0.000762886
0.000761685
0.000766894
0.00077449
0.000781906
0.000787961
0.000792835
0.000796421
0.000798649
0.000799353
0.000798401
0.000795555
0.000790467
0.000782476
0.000770932
0.000754888
0.000732339
0.000700663
0.000656738
0.00127293
0.00125559
0.00123726
0.00121779
0.00119657
0.00117237
0.00114348
0.00110934
0.0010715
0.00103735
0.00101506
0.00100609
0.00100644
0.00101261
0.00101997
0.00102562
0.00102798
0.00102793
0.00102558
0.0010212
0.00101516
0.0010078
0.000999152
0.000988842
0.000975228
0.000958283
0.000938459
0.000912871
0.000878913
0.000833469
0.00155499
0.00155236
0.00155363
0.0015546
0.00155435
0.00155207
0.00154671
0.0015384
0.00152506
0.0015112
0.00150112
0.00149537
0.00149277
0.00149411
0.0014964
0.00149844
0.00149805
0.00149783
0.00149728
0.00149704
0.00149692
0.00149716
0.00149741
0.00149721
0.00149115
0.00148161
0.00147347
0.00146008
0.00144182
0.00141774
0.000199746
0.000207497
0.000205245
0.00019974
0.000192394
0.000184073
0.000175355
0.00016664
0.000158162
0.000150115
0.000142569
0.00013563
0.000129313
0.000123785
0.000119109
0.00011554
0.00011326
0.000112664
0.000113827
0.000116147
0.000118385
0.000119376
0.000118247
0.000114401
0.000107631
9.78601e-05
8.47058e-05
0.000364932
0.000357927
0.000372
0.000758699
0.000855728
0.000827657
0.00077042
0.000707288
0.000647538
0.000594231
0.000547561
0.000507001
0.000472
0.000441398
0.000414948
0.000391392
0.000371516
0.000354631
0.000341671
0.000332014
0.000328435
0.000329703
0.000335761
0.000344784
0.000354063
0.000357678
0.000350217
0.000332421
0.000304363
0.000273221
0.000296402
0.000388971
0.000368151
0.0011929
0.00137468
0.00138756
0.00133115
0.00125069
0.00116525
0.00108405
0.00100996
0.000943694
0.000885369
0.000833615
0.000788485
0.000748118
0.000714255
0.000686182
0.000664841
0.000648648
0.000641011
0.000636946
0.000637505
0.000642378
0.000649644
0.000648838
0.000633561
0.000599468
0.000547722
0.000485881
0.000427133
0.000439058
0.00047774
0.0014517
0.0016994
0.00176118
0.00172889
0.00165942
0.00157393
0.00148587
0.00140124
0.00132281
0.00125181
0.00118767
0.00113124
0.00108108
0.00103956
0.00100646
0.000982653
0.000965366
0.000955856
0.000946458
0.000939091
0.000935558
0.000935139
0.000926907
0.000900396
0.000851412
0.000780103
0.000693329
0.000592795
0.000532554
0.00052715
0.00157775
0.00184095
0.0019543
0.00197654
0.00193825
0.0018692
0.0017881
0.00170504
0.00162508
0.00155029
0.00148167
0.00142091
0.00136741
0.0013243
0.0012921
0.00127108
0.00125717
0.00124798
0.0012343
0.00121914
0.00120683
0.00119722
0.00117991
0.00114355
0.00108299
0.000997814
0.000893805
0.000768944
0.000661749
0.000605612
0.00164307
0.00190914
0.00205802
0.00211634
0.0021116
0.00206844
0.00200272
0.00192898
0.00185545
0.00178356
0.00171697
0.00165756
0.00160622
0.00156675
0.00154016
0.00152608
0.00151846
0.0015107
0.00149368
0.00147186
0.00145153
0.00143307
0.00140697
0.00136279
0.00129403
0.00119947
0.00108445
0.000945794
0.000810645
0.000713116
0.00165683
0.0019091
0.00207872
0.00217043
0.00220068
0.00218745
0.00214605
0.00208795
0.00202298
0.00195821
0.00189968
0.00184616
0.00180124
0.00176988
0.00175259
0.00174871
0.00174904
0.0017432
0.00172366
0.00169655
0.00166943
0.00164267
0.00160931
0.00155911
0.00148504
0.0013852
0.0012637
0.00111752
0.000967508
0.000839165
0.00160662
0.00184063
0.00202945
0.00215453
0.002221
0.00223886
0.00222359
0.00218684
0.00213852
0.00208799
0.0020367
0.00199212
0.00195688
0.00193729
0.00193216
0.00194117
0.00194994
0.00194658
0.00192533
0.00189421
0.00186177
0.00182926
0.00179029
0.00173461
0.00165728
0.00155521
0.0014313
0.0012823
0.00112472
0.000973609
0.00148211
0.00171103
0.00192053
0.00208102
0.00218431
0.00223416
0.00224688
0.00223539
0.00220744
0.00217281
0.00213508
0.00210184
0.00207768
0.00207232
0.00208161
0.00210525
0.00212258
0.00212264
0.00210086
0.00206657
0.00203063
0.00199389
0.00195065
0.00189275
0.00181255
0.00171041
0.00158766
0.00144005
0.00128002
0.00110854
0.00134021
0.00153704
0.00176189
0.00196157
0.0020998
0.0021838
0.00222719
0.00224246
0.00223798
0.00222184
0.00219986
0.00218041
0.00217041
0.00217881
0.0022035
0.00224242
0.00226903
0.00227103
0.00224893
0.00221459
0.00217702
0.00213656
0.0020906
0.00203157
0.00195317
0.00185302
0.00173154
0.00158508
0.00142551
0.00123834
0.0012108
0.00135311
0.00156795
0.0017917
0.0019729
0.00209627
0.00217252
0.00221589
0.00223564
0.00223997
0.00223529
0.0022312
0.00223601
0.00225971
0.00230036
0.00235411
0.00239058
0.00239694
0.00237575
0.002341
0.00230307
0.00226032
0.00221254
0.00215385
0.00207921
0.00198068
0.00186056
0.00171767
0.00155879
0.00136226
0.00111228
0.00118695
0.00136761
0.0015949
0.00180557
0.00196933
0.00208773
0.00216005
0.00220549
0.00223099
0.00224441
0.00225719
0.0022784
0.0023171
0.0023742
0.00244205
0.00248809
0.00250046
0.00248121
0.00244782
0.00241059
0.00236732
0.00231894
0.00226208
0.00218848
0.00209364
0.00197587
0.00183945
0.00167909
0.00147902
0.00105357
0.00105911
0.00118657
0.00139376
0.001616
0.00181083
0.00196643
0.0020773
0.00215105
0.00219852
0.00223128
0.00226143
0.00229906
0.00235318
0.00242668
0.0025078
0.00256326
0.00258245
0.00256735
0.00253644
0.00250132
0.00246026
0.0024118
0.00235487
0.00228268
0.00219126
0.00207822
0.00194957
0.00178597
0.00158189
0.00106113
0.000989926
0.00104707
0.00121051
0.00142324
0.00163517
0.00181983
0.00196409
0.0020706
0.00214569
0.0021985
0.00224648
0.0023005
0.00237005
0.00245931
0.00255285
0.00261769
0.00264439
0.00263637
0.0026081
0.00257224
0.00253112
0.00248572
0.00243232
0.00236304
0.00227566
0.00217163
0.00204345
0.00187754
0.00166976
0.00112081
0.000995663
0.000978182
0.00107327
0.0012502
0.00145879
0.00165986
0.00182965
0.00196494
0.00206928
0.00214863
0.00221456
0.00228486
0.00236945
0.00247342
0.00257856
0.00265288
0.00268789
0.00268795
0.00266453
0.00263156
0.00259136
0.00254562
0.00249439
0.00243076
0.0023509
0.00225416
0.00212317
0.00195384
0.00174222
0.00124682
0.00108118
0.000990926
0.0010073
0.0011224
0.00130093
0.00150014
0.00168467
0.00184237
0.00197245
0.00207817
0.00216768
0.00225395
0.00235297
0.00247036
0.00258638
0.00267027
0.00271439
0.00272378
0.00270707
0.00267813
0.00264229
0.00259822
0.00254829
0.00248972
0.00241898
0.00232234
0.00218882
0.00201531
0.00179952
0.00144104
0.00124882
0.00110182
0.00103095
0.00106514
0.00118519
0.0013576
0.00154158
0.00171224
0.0018622
0.00199094
0.00210397
0.00220942
0.00232214
0.00245167
0.00257782
0.00267137
0.0027254
0.0027449
0.00273688
0.00271344
0.00268285
0.00264508
0.00259941
0.00254648
0.00247852
0.00237913
0.00224177
0.0020631
0.00184256
0.00170107
0.00149292
0.00130667
0.00116303
0.00109938
0.00113721
0.00125421
0.00141549
0.00158542
0.0017466
0.0018929
0.00202606
0.00215109
0.00227853
0.00241906
0.00255463
0.00265782
0.00272232
0.0027528
0.00275513
0.00273924
0.00271594
0.00268747
0.0026496
0.00260029
0.00252902
0.00242615
0.00228374
0.00209881
0.00187274
0.002019
0.00180208
0.00158995
0.00139271
0.00124258
0.00117862
0.00121324
0.00132515
0.00147494
0.00163504
0.00179098
0.00193908
0.00208032
0.0022246
0.0023746
0.00251874
0.00263148
0.00270693
0.00274932
0.00276351
0.00275812
0.00274515
0.00272782
0.00269666
0.00264619
0.00257216
0.00246528
0.00231674
0.00212431
0.00189176
0.00238052
0.00215937
0.00192983
0.00169565
0.00147896
0.00132028
0.00125597
0.00128852
0.00139599
0.00153844
0.00169313
0.00184878
0.0020014
0.00215924
0.0023205
0.0024721
0.00259412
0.00268121
0.00273627
0.00276464
0.00277303
0.0027708
0.00276392
0.00273424
0.00268536
0.00261098
0.00249895
0.0023431
0.00214184
0.0019016
0.00276419
0.0025417
0.00230061
0.00204147
0.00177841
0.00154453
0.00138435
0.00132453
0.0013619
0.00146875
0.00160795
0.00176108
0.00191888
0.00208426
0.0022521
0.00241209
0.00254457
0.00264375
0.00271195
0.00275433
0.00277626
0.00278485
0.00278529
0.00276616
0.00272221
0.00264463
0.00252711
0.00236392
0.0021533
0.00190441
0.00314161
0.00292
0.00267257
0.00239806
0.0021052
0.00181894
0.00158093
0.00143113
0.00138622
0.00143274
0.00154177
0.00168103
0.00183377
0.00199753
0.00216403
0.00232501
0.00246199
0.00257115
0.00265194
0.00270844
0.00274613
0.00276974
0.00278037
0.00277442
0.00273857
0.00266233
0.00254158
0.00237601
0.00215852
0.00190151
0.00347659
0.00325878
0.00301095
0.00273038
0.00242229
0.0021046
0.00181217
0.00158731
0.0014607
0.00143824
0.00149432
0.0016049
0.00173918
0.00188784
0.0020389
0.00218886
0.0023258
0.00244011
0.00253051
0.00260032
0.00265399
0.00269512
0.00272315
0.00273682
0.00271967
0.00265621
0.00253891
0.00236916
0.00215262
0.0018921
0.00372515
0.00351581
0.00327539
0.00299942
0.00269019
0.00235977
0.0020355
0.00175617
0.0015589
0.00146394
0.00145752
0.00151431
0.00160937
0.00172443
0.00184328
0.00196763
0.00209039
0.00220016
0.0022976
0.00238265
0.00245697
0.00252116
0.00257421
0.002616
0.00262844
0.00259587
0.00249932
0.00234146
0.002123
0.00186872
0.00383831
0.00364612
0.00342363
0.00316438
0.00286799
0.00254178
0.00220617
0.00189428
0.00164373
0.00148138
0.00140538
0.00139513
0.00143066
0.00149386
0.00157431
0.00166618
0.00176234
0.00186017
0.00195623
0.00204904
0.0021388
0.00222467
0.00230561
0.00237708
0.00242537
0.00243436
0.00238418
0.00225706
0.00206843
0.0018257
0.00378257
0.00362093
0.0034296
0.00320068
0.00293168
0.00262744
0.00230439
0.0019905
0.00172003
0.00151956
0.00139402
0.00133194
0.00131998
0.00134553
0.00139831
0.00146447
0.00153323
0.00160553
0.0016802
0.00175706
0.00183652
0.00191702
0.001998
0.00207587
0.0021407
0.00217796
0.00216843
0.002093
0.00193678
0.00173664
0.00358222
0.00346777
0.00332466
0.00314456
0.0029243
0.00266934
0.00239547
0.00212702
0.00189123
0.00170886
0.00158391
0.00151219
0.0014907
0.00150601
0.00154697
0.00159609
0.00164068
0.00168423
0.00172866
0.00177148
0.00181455
0.00185891
0.00190454
0.00194925
0.00198711
0.00200791
0.00199548
0.0019316
0.00179832
0.00160019
0.00339208
0.00333543
0.0032505
0.00313206
0.00297781
0.00279541
0.00259964
0.00240757
0.00223715
0.00209938
0.00199907
0.00194259
0.00192439
0.00193542
0.0019652
0.00200027
0.00202909
0.00205759
0.00208314
0.00210608
0.00212706
0.0021471
0.00216559
0.00217989
0.00218557
0.00217623
0.00213917
0.00205675
0.00191083
0.00169134
0.00328246
0.00326123
0.00323587
0.00318512
0.00310593
0.00300179
0.00288026
0.00275582
0.00263925
0.00253845
0.002461
0.00241293
0.00238993
0.0023883
0.0023996
0.00241849
0.00243606
0.00245697
0.00247776
0.00249977
0.00252261
0.00254582
0.00256786
0.00258546
0.00259441
0.00259154
0.00256706
0.0025069
0.00239938
0.00223475
0.00325219
0.00325354
0.00325443
0.00323453
0.00319436
0.00314069
0.00307418
0.0030001
0.0029251
0.00285843
0.00280345
0.00276129
0.00273253
0.0027184
0.00271376
0.00272072
0.00273147
0.00274847
0.00277045
0.00279816
0.00283009
0.00286438
0.00289869
0.00293061
0.00295663
0.00297848
0.00298755
0.00297589
0.00294581
0.00289248
0.000230554
0.00023815
0.000233789
0.000227029
0.000218568
0.000209098
0.000199228
0.000189394
0.000179844
0.000170786
0.000162289
0.000154476
0.000147338
0.000141091
0.000135811
0.000131869
0.000129611
0.000130082
0.000133689
0.000138929
0.000143272
0.000145095
0.000143504
0.000137927
0.000127949
0.000113049
9.32894e-05
0.000363126
8.51459e-05
8.97792e-05
0.00097852
0.00112257
0.00112629
0.00106526
0.000985562
0.000906692
0.000835748
0.00077335
0.000718689
0.00067089
0.000627974
0.000589704
0.000553687
0.000521798
0.000492409
0.000467843
0.000448327
0.000443428
0.000452193
0.000473476
0.00049947
0.000522438
0.000529903
0.000513081
0.000471288
0.000411679
0.000345856
0.000315446
0.000359761
0.000380931
0.00155792
0.00182805
0.00189462
0.00185408
0.00176564
0.00166158
0.00155803
0.00146132
0.00137292
0.00129306
0.00121973
0.00115324
0.0010903
0.00103447
0.000984156
0.000941609
0.000906863
0.000891874
0.000891186
0.000908261
0.000935429
0.000963737
0.000967933
0.000932709
0.000861629
0.00075397
0.000628207
0.000509667
0.000480989
0.000552027
0.00196955
0.00229778
0.00240538
0.00240327
0.00233373
0.00223464
0.00212587
0.00201802
0.00191511
0.00181916
0.00172944
0.00164735
0.00157027
0.0015025
0.0014434
0.00139433
0.00135342
0.00132935
0.00131576
0.00132171
0.00133871
0.00136271
0.00136001
0.00131463
0.00121946
0.00107844
0.000909935
0.000730307
0.000615527
0.000625214
0.00223012
0.00255042
0.00271473
0.00276156
0.00272354
0.00264376
0.00254475
0.00244063
0.00233652
0.00223632
0.0021414
0.00205426
0.0019731
0.0019036
0.00184588
0.00179878
0.00175697
0.00172395
0.00169622
0.00168601
0.00169377
0.00170948
0.00170199
0.00164854
0.00154056
0.00138026
0.00118422
0.000965864
0.000787642
0.000727993
0.00239185
0.0026955
0.00288615
0.002971
0.00297378
0.00292147
0.0028401
0.0027504
0.00265413
0.00255831
0.00246687
0.00238261
0.00230597
0.0022431
0.00219422
0.00215511
0.00211459
0.00207168
0.00202979
0.00200561
0.00200109
0.00200925
0.00199746
0.00194119
0.00182788
0.00165901
0.00144845
0.00120658
0.000986387
0.000867302
0.00250396
0.0027761
0.00296592
0.00307474
0.00311211
0.00309656
0.00304884
0.00296976
0.00288403
0.00279869
0.00271854
0.00264326
0.0025782
0.00252931
0.00249502
0.00246746
0.00242891
0.00237504
0.00231965
0.00228277
0.00226759
0.00226764
0.00225198
0.002197
0.00208432
0.00191516
0.00170035
0.00144901
0.00120112
0.00103299
0.00254946
0.00277098
0.00295771
0.00308861
0.00316005
0.00317961
0.00316232
0.00311197
0.00304998
0.00297934
0.00290772
0.00284555
0.00279743
0.00276882
0.00275347
0.00274056
0.00270234
0.0026379
0.00257051
0.00252295
0.00249928
0.00249053
0.00247128
0.00241854
0.00231481
0.00215068
0.00194114
0.00168611
0.00142418
0.00121273
0.00249547
0.00268267
0.00287108
0.00302536
0.00313193
0.00318823
0.00320324
0.00318551
0.00314745
0.00309804
0.00304508
0.00300058
0.00297105
0.00296682
0.00297388
0.00297723
0.00293816
0.00286444
0.00278748
0.00273156
0.00270043
0.00268367
0.00266107
0.00261114
0.00251795
0.00236636
0.00216104
0.00190958
0.00164303
0.00139874
0.00236821
0.00252635
0.00271653
0.00289609
0.00303996
0.00313448
0.0031848
0.00319953
0.00319057
0.00316601
0.00313631
0.00311394
0.00310771
0.0031279
0.00315998
0.00317958
0.00313964
0.00305904
0.00297577
0.00291171
0.00287579
0.00285244
0.00282666
0.00278047
0.00269605
0.00255684
0.0023606
0.00211914
0.00185324
0.00158589
0.00222562
0.0023402
0.00251924
0.00271701
0.0028942
0.00302825
0.00311612
0.00316523
0.00318644
0.00319006
0.0031866
0.0031899
0.00321046
0.00325585
0.00331503
0.00334897
0.00331019
0.00322597
0.00313637
0.00307079
0.00302989
0.00300133
0.002973
0.0029296
0.00284976
0.00272208
0.00254005
0.00231417
0.00205147
0.001774
0.00209114
0.00213941
0.00229318
0.00249931
0.00270529
0.00287746
0.00300485
0.00309026
0.00314349
0.0031766
0.00320148
0.00323334
0.00328193
0.00335465
0.00344062
0.00348736
0.00345184
0.00336503
0.00327761
0.00321112
0.00316665
0.00313451
0.00310507
0.0030604
0.00298436
0.00286719
0.00270359
0.00249044
0.00223264
0.00194955
0.00197931
0.0019448
0.00205815
0.00225788
0.00248376
0.00269024
0.00285634
0.00297959
0.00306774
0.00313158
0.00318633
0.00324744
0.00332483
0.00342745
0.00353837
0.00359687
0.00356796
0.00348635
0.00340049
0.00333546
0.00328928
0.00325777
0.00322351
0.00317712
0.00310451
0.00299959
0.00285227
0.00264768
0.00239506
0.00210927
0.00191231
0.00179257
0.00184454
0.00201543
0.00224507
0.00247682
0.00267811
0.00283848
0.00296236
0.00305994
0.00314517
0.0032361
0.00334226
0.00347603
0.00360988
0.00368136
0.00366112
0.0035884
0.00350747
0.00344582
0.00339908
0.00336464
0.00332996
0.00328297
0.00321486
0.00312252
0.00298416
0.00278638
0.00253804
0.00225094
0.00192842
0.00172634
0.00169243
0.00180546
0.00201315
0.00225295
0.00248029
0.00267411
0.00283287
0.0029645
0.00308217
0.00320267
0.00333699
0.0035017
0.00365647
0.00374054
0.00373353
0.00367556
0.00360102
0.00354222
0.00349499
0.00346045
0.00342691
0.00338053
0.00332172
0.00323454
0.00309999
0.00290705
0.00266152
0.00237332
0.00202372
0.00177918
0.00165181
0.00167441
0.00182375
0.00204325
0.00227863
0.00249662
0.00268611
0.00285023
0.00300001
0.00315026
0.00331174
0.00350555
0.00367935
0.00377737
0.00378705
0.00374495
0.00368196
0.00362998
0.00358729
0.00355412
0.00351881
0.00347764
0.00342355
0.00333544
0.00320135
0.00301147
0.00276603
0.00247605
0.00221894
0.00194701
0.00174795
0.00166332
0.00172373
0.00188293
0.00209698
0.00232109
0.00253151
0.00272323
0.00290278
0.00308163
0.00326924
0.00348827
0.00367943
0.00379302
0.00382221
0.0037989
0.00375066
0.00370733
0.00367323
0.0036448
0.0036104
0.00357272
0.00351636
0.00342584
0.00328933
0.00309886
0.00285203
0.00255931
0.00252754
0.00223867
0.00198886
0.00181275
0.00174899
0.00181316
0.00196708
0.00216859
0.00238207
0.0025913
0.00279516
0.00299863
0.00321248
0.00345039
0.00365663
0.00378682
0.00383762
0.00383544
0.00380537
0.00377312
0.00375015
0.00372431
0.00369528
0.003658
0.00360005
0.00350593
0.00336448
0.00316994
0.00292076
0.00262372
0.00292224
0.00262683
0.00234497
0.00209861
0.00192541
0.00186236
0.00191802
0.0020647
0.00225375
0.00246378
0.00268245
0.00290427
0.00313972
0.00338917
0.00360763
0.00375427
0.00382786
0.00384838
0.00383945
0.00382083
0.0038073
0.00378962
0.00377021
0.00373496
0.00367561
0.00357653
0.00342771
0.00322627
0.00297116
0.00266975
0.00336486
0.00306831
0.00276712
0.00247352
0.00221625
0.00203705
0.00197131
0.00201744
0.00216208
0.00234926
0.0025692
0.00280075
0.00304512
0.00329843
0.00352103
0.00368246
0.00377869
0.00382173
0.00383505
0.00383264
0.00382976
0.00382546
0.00381802
0.00379313
0.00373569
0.00363476
0.00348064
0.0032698
0.00300552
0.00269868
0.00380937
0.00351404
0.00320205
0.00287953
0.00256628
0.00229751
0.00211784
0.00205582
0.00210711
0.00225951
0.00245811
0.00267996
0.00292213
0.00316423
0.00337692
0.00354508
0.00366089
0.00373137
0.00376411
0.00377919
0.00379144
0.00380366
0.00380986
0.00379487
0.0037422
0.00365026
0.00350353
0.00329382
0.0030251
0.00271162
0.00420712
0.00391523
0.00359958
0.00326257
0.00291704
0.00258926
0.00232047
0.00215297
0.00210716
0.00217174
0.00231802
0.00251046
0.00272547
0.00294287
0.00314461
0.00331147
0.00344373
0.00353379
0.00358848
0.00362745
0.00366121
0.00369659
0.00372417
0.00373091
0.00369346
0.0036034
0.00346821
0.00327687
0.00301667
0.00270514
0.00451083
0.00422667
0.00391523
0.0035763
0.00321766
0.00285751
0.00252899
0.00227452
0.00212867
0.00209684
0.00216077
0.0022912
0.00246163
0.00264059
0.00281091
0.00296911
0.00310927
0.00321054
0.00328859
0.00335239
0.00341415
0.00347684
0.00353208
0.00356837
0.00356472
0.00349644
0.00336908
0.00318572
0.00295485
0.00266531
0.00467959
0.00441112
0.00411377
0.0037854
0.00343006
0.00305975
0.00269945
0.00238563
0.00215596
0.0020295
0.00199798
0.00204507
0.00215076
0.00229018
0.00243431
0.00258061
0.00271022
0.0028168
0.00290726
0.0029892
0.00307287
0.00315569
0.00323403
0.00329762
0.00332806
0.0033025
0.00320203
0.00304302
0.00282109
0.0025597
0.00469044
0.00444983
0.00417985
0.00387658
0.00354157
0.00318293
0.00282028
0.0024846
0.00221132
0.00202356
0.00192138
0.0019011
0.00195349
0.0020538
0.00218305
0.0023093
0.00241768
0.00251133
0.00259418
0.00267536
0.00275388
0.00283287
0.00291056
0.00297907
0.00302343
0.00302418
0.00296191
0.00282368
0.00263665
0.00241301
0.00456014
0.0043644
0.00414029
0.00388156
0.00358847
0.00326786
0.00293789
0.00262648
0.00236477
0.00217014
0.00204544
0.00200077
0.00202526
0.00209918
0.00220708
0.00230715
0.00238712
0.00245419
0.00251671
0.00257268
0.00262465
0.00267558
0.00272514
0.00276827
0.00279406
0.00278694
0.00272829
0.00260462
0.00241373
0.00219392