/*--------------------------------*- C++ -*----------------------------------*\
| =========                 |                                                 |
| \\      /  F ield         | OpenFOAM: The Open Source CFD Toolbox           |
|  \\    /   O peration     | Version:  5.0                                   |
|   \\  /    A nd           | Web:      www.OpenFOAM.org                      |
|    \\/     M anipulation  |                                                 |
\*---------------------------------------------------------------------------*/
FoamFile
{
    version     2.0;
    format      ascii;
    class       volScalarField;
    location    "1550/air";
    object      epsilon;
}
// * * * * * * * * * * * * * * * * * * * * * * * * * * * * * * * * * * * * * //

dimensions      [0 2 -3 0 0 0 0];

internalField   nonuniform List<scalar> 
243000
(
3.23913
4.01405
4.40886
4.64487
4.73627
4.71041
4.58909
4.39537
4.14943
3.87253
3.5782
3.27761
2.97487
2.68201
2.40708
2.16439
1.96374
1.81891
1.72679
1.66949
1.61368
1.52625
1.38737
1.19815
0.981514
0.200435
0.173118
0.150378
0.117382
0.105269
1.67189
1.99293
2.07306
2.0665
2.00464
1.90691
1.78805
1.65881
1.52622
1.39557
1.26924
1.14945
1.03685
0.934716
0.844623
0.769644
0.7116
0.675248
0.658944
0.656911
0.657298
0.647711
0.617766
0.564068
0.491687
0.407162
0.326934
0.24742
0.180922
0.155446
2.08051
2.44761
2.56799
2.57184
2.50355
2.38925
2.2473
2.09096
1.92902
1.76866
1.613
1.46544
1.32735
1.20322
1.09524
1.00742
0.941913
0.904052
0.890248
0.89213
0.895073
0.884696
0.848417
0.781446
0.688901
0.579526
0.465204
0.348831
0.252774
0.192881
2.2574
2.66523
2.82962
2.86726
2.81881
2.71434
2.57334
2.41084
2.23754
2.06257
1.89058
1.72657
1.57286
1.43542
1.31729
1.22366
1.15698
1.12232
1.11318
1.11834
1.12153
1.10781
1.06419
0.98536
0.876072
0.745425
0.605973
0.460661
0.336463
0.250338
2.25737
2.6683
2.89895
2.99163
2.98099
2.90443
2.78146
2.62852
2.45819
2.28123
2.10411
1.93349
1.77296
1.62999
1.50857
1.41518
1.35241
1.32428
1.32097
1.32863
1.33044
1.31175
1.26033
1.17112
1.04852
0.901495
0.74302
0.576093
0.426295
0.31706
2.14671
2.55464
2.83397
2.98057
3.02061
2.9832
2.88974
2.7575
2.60085
2.43183
2.25858
2.08946
1.92944
1.78754
1.66848
1.5803
1.52538
1.50602
1.50901
1.51859
1.51808
1.49357
1.43435
1.33617
1.20324
1.04432
0.871977
0.689498
0.518052
0.388278
1.95036
2.36268
2.67882
2.87542
2.9664
2.97515
2.91719
2.81098
2.67581
2.52254
2.36037
2.1992
2.04552
1.91004
1.79786
1.71879
1.67453
1.6653
1.67471
1.68588
1.6826
1.6521
1.58548
1.47966
1.33892
1.17173
0.989813
0.796714
0.608779
0.460802
1.70123
2.11841
2.4622
2.70221
2.84214
2.89627
2.87884
2.80763
2.69711
2.56168
2.41603
2.2679
2.12515
2.00003
1.89835
1.83129
1.79951
1.80101
1.81677
1.82942
1.82339
1.78728
1.71403
1.6019
1.45544
1.28282
1.09488
0.895714
0.696204
0.532806
1.44619
1.85405
2.21311
2.48612
2.6687
2.76555
2.78848
2.75268
2.67201
2.56266
2.43428
2.30103
2.17255
2.06071
1.97208
1.91893
1.90068
1.91284
1.93482
1.94899
1.94062
1.89968
1.82088
1.70385
1.55345
1.37773
1.18711
0.983553
0.776668
0.602343
1.22185
1.60815
1.96626
2.25225
2.46592
2.5996
2.66007
2.66002
2.61059
2.52724
2.4211
2.30641
2.19238
2.0955
2.02144
1.98317
1.97872
2.00112
2.02902
2.0449
2.03488
1.99023
1.90721
1.78673
1.63411
1.45778
1.26515
1.05904
0.849161
0.667887
1.03952
1.3792
1.73061
2.02834
2.25826
2.4147
2.50711
2.53978
2.52147
2.46494
2.3817
2.28608
2.18973
2.10791
2.04892
2.02571
2.03456
2.06661
2.1001
2.11794
2.10715
2.06007
1.97437
1.85203
1.69925
1.52258
1.32914
1.12219
0.913536
0.728192
0.91755
1.17348
1.50426
1.80952
2.05612
2.23213
2.34362
2.40228
2.41229
2.38196
2.32179
2.24598
2.16684
2.10087
2.05692
2.04824
2.06942
2.11039
2.14909
2.16918
2.1586
2.11053
2.0238
1.90161
1.74916
1.57315
1.37988
1.17322
0.969263
0.78268
0.876298
1.00823
1.29163
1.59442
1.8558
2.05216
2.18405
2.26054
2.29097
2.28422
2.24615
2.18999
2.12802
2.07738
2.04782
2.05251
2.08471
2.13365
2.17734
2.19996
2.19053
2.14298
2.0574
1.93618
1.78503
1.61053
1.41829
1.21334
1.01643
0.830833
0.936712
0.914648
1.10797
1.38668
1.65603
1.87208
2.02551
2.1214
2.16867
2.17802
2.15946
2.12177
2.0763
2.04023
2.02395
2.04048
2.08213
2.13793
2.18631
2.21185
2.20417
2.15892
2.07532
1.95645
1.80789
1.63577
1.4456
1.24841
1.05711
0.873129
1.10584
0.934743
0.987751
1.20062
1.46034
1.69108
1.86609
1.98268
2.04808
2.07247
2.06682
2.04499
2.01458
1.9919
1.98756
2.01411
2.06351
2.12486
2.17751
2.20645
2.20102
2.15777
2.07731
1.96253
1.81834
1.6499
1.46396
1.27703
1.09167
0.909784
1.37689
1.10429
0.977625
1.06857
1.28161
1.51244
1.70526
1.84295
1.92765
1.96817
1.97559
1.96371
1.94579
1.9349
1.94072
1.9754
2.0308
2.09643
2.15291
2.18548
2.18334
2.1441
2.06732
1.95685
1.81718
1.65383
1.47845
1.30029
1.12059
0.941031
1.72205
1.40372
1.13084
1.03977
1.14883
1.3475
1.54606
1.70215
1.80647
1.86411
1.88538
1.88366
1.87325
1.87166
1.88555
1.92639
1.98607
2.05474
2.11449
2.15082
2.15283
2.11846
2.04711
1.94188
1.80758
1.6521
1.48823
1.31846
1.14417
0.967024
2.09821
1.78165
1.43378
1.16909
1.10762
1.22123
1.39827
1.563
1.68476
1.75974
1.79557
1.80484
1.80166
1.80488
1.8243
1.86921
1.9315
2.00203
2.06434
2.10444
2.1113
2.08252
2.018
1.91904
1.79127
1.64772
1.494
1.33194
1.16271
0.987907
2.51348
2.19733
1.82697
1.45455
1.2077
1.1714
1.28186
1.43335
1.56486
1.65537
1.70582
1.72667
1.73162
1.73808
1.75955
1.80622
1.86942
1.94064
2.00479
2.04847
2.06064
2.03818
1.98107
1.88984
1.77335
1.64092
1.4963
1.34122
1.17653
1.00383
2.96589
2.63776
2.26318
1.84589
1.45934
1.24063
1.22635
1.32818
1.45268
1.5529
1.61648
1.64895
1.66254
1.6734
1.69488
1.74012
1.80236
1.87306
1.93822
1.98517
2.00287
1.98722
1.93817
1.85805
1.75409
1.63217
1.49572
1.34687
1.18605
1.01496
3.45224
3.10746
2.72734
2.2918
1.82718
1.44541
1.26508
1.26929
1.35899
1.45665
1.52905
1.572
1.59426
1.61031
1.63297
1.67468
1.73332
1.80208
1.86732
1.91694
1.94009
1.93165
1.89328
1.82628
1.73422
1.62218
1.49329
1.3497
1.19194
1.0218
3.96734
3.60648
3.21562
2.76592
2.26109
1.76608
1.41587
1.28057
1.29917
1.37409
1.44665
1.49698
1.52714
1.54865
1.57343
1.61308
1.66795
1.73289
1.79696
1.84861
1.87771
1.87804
1.85015
1.79515
1.71449
1.61191
1.48997
1.35076
1.19512
1.02505
4.50711
4.14217
3.73043
3.26012
2.72715
2.16217
1.67169
1.37856
1.28929
1.31561
1.37459
1.42644
1.46235
1.48897
1.51644
1.55523
1.60725
1.66891
1.73154
1.78471
1.81888
1.82738
1.80926
1.76543
1.69586
1.60257
1.48719
1.35142
1.19681
1.02568
5.08192
4.69171
4.25553
3.76216
3.2054
2.59635
2.00592
1.56401
1.34332
1.29312
1.32078
1.36499
1.40274
1.43321
1.46352
1.50234
1.55234
1.61125
1.67224
1.72648
1.76496
1.78093
1.77191
1.73858
1.6798
1.59579
1.48661
1.35392
1.19892
1.0252
5.63916
5.23104
4.77639
4.26393
3.68683
3.04875
2.39298
1.82963
1.47096
1.32119
1.29721
1.32189
1.35547
1.3876
1.42056
1.46023
1.50903
1.5657
1.62501
1.6795
1.72123
1.74362
1.74288
1.71922
1.66999
1.5944
1.49189
1.36186
1.20529
1.02647
6.20624
5.78085
5.30924
4.78074
4.18783
3.53007
2.8329
2.17918
1.69131
1.4262
1.33035
1.32056
1.34285
1.37431
1.41025
1.45225
1.5011
1.55604
1.61315
1.66641
1.70894
1.73485
1.74038
1.72367
1.6822
1.61386
1.5163
1.38691
1.2247
1.0357
6.83795
6.40221
5.91945
5.38034
4.7781
4.1107
3.39109
2.67643
2.07814
1.68927
1.50267
1.44424
1.44792
1.47858
1.52122
1.5694
1.61998
1.67274
1.72487
1.77191
1.80872
1.83067
1.83453
1.81749
1.77647
1.7083
1.60891
1.47218
1.2955
1.0828
7.69667
7.26311
6.78385
6.25492
5.67266
5.03169
4.33203
3.60414
2.93295
2.43121
2.14637
2.03332
2.0213
2.06188
2.12359
2.18572
2.2379
2.28104
2.3137
2.33477
2.34242
2.33537
2.31148
2.26808
2.20032
2.10437
1.97541
1.80311
1.57856
1.29963
9.50135
9.11683
8.72271
8.31679
7.8895
7.42032
6.88506
6.28572
5.6609
5.13052
4.79939
4.66693
4.66745
4.75097
4.85405
4.93498
4.96975
4.97016
4.93764
4.87624
4.79192
4.68997
4.5715
4.4323
4.25218
4.0346
3.78918
3.48704
3.11162
2.65362
17.252
17.1634
17.2053
17.2371
17.2275
17.1501
16.971
16.6958
16.261
15.8138
15.4912
15.3068
15.222
15.2583
15.3262
15.3879
15.3761
15.3696
15.3536
15.347
15.3445
15.3527
15.3612
15.3553
15.1694
14.8811
14.6375
14.2415
13.7138
13.0415
5.76117
7.52042
8.44425
8.9879
9.22221
9.20904
9.00322
8.65512
8.20186
7.67898
7.10928
6.5228
5.93482
5.37932
4.8733
4.44971
4.12458
3.93146
3.86434
3.85394
3.77679
3.53658
3.10113
2.50683
1.846
1.21506
0.786937
0.149052
0.127633
0.112189
3.65134
4.27335
4.68704
4.92932
5.02342
4.98927
4.8509
4.63666
4.36987
4.07081
3.75593
3.43977
3.13461
2.85383
2.61062
2.41962
2.29296
2.24872
2.29055
2.37105
2.405
2.32771
2.11966
1.80469
1.42193
1.02721
0.669821
0.35417
0.279069
0.206922
3.20802
3.6459
3.93154
4.09628
4.16094
4.13743
4.03629
3.87431
3.66759
3.4321
3.18167
2.9291
2.68515
2.46281
2.2737
2.13355
2.05175
2.04211
2.10606
2.20197
2.25792
2.21724
2.06331
1.80469
1.48211
1.13268
0.797603
0.492855
0.340118
0.275217
2.91149
3.27436
3.52152
3.6694
3.73798
3.73749
3.67106
3.54942
3.38485
3.1908
2.97958
2.76354
2.55262
2.3613
2.20149
2.08915
2.03246
2.04284
2.11468
2.21005
2.26712
2.23782
2.10418
1.87631
1.58342
1.25664
0.931379
0.620336
0.412426
0.295393
2.62491
2.9249
3.16241
3.3198
3.40938
3.43833
3.4075
3.32293
3.19522
3.03633
2.85773
2.67153
2.4878
2.32209
2.18639
2.09755
2.06244
2.08891
2.16543
2.25582
2.30663
2.27859
2.15584
1.9466
1.67477
1.36622
1.05216
0.741643
0.501962
0.345168
2.30817
2.56308
2.80386
2.98187
3.10025
3.16137
3.16569
3.11629
3.02281
2.89643
2.74826
2.59023
2.43222
2.29084
2.1784
2.11235
2.09831
2.13956
2.21933
2.30284
2.34487
2.31324
2.19614
1.99988
1.74558
1.4551
1.1547
0.851593
0.597213
0.412923
1.96471
2.19043
2.44093
2.64446
2.79428
2.88754
2.92373
2.90742
2.84625
2.75127
2.63283
2.5024
2.36998
2.25253
2.16323
2.11999
2.1266
2.18172
2.26396
2.34006
2.37248
2.33589
2.22077
2.03437
1.79548
1.5228
1.23833
0.94791
0.69027
0.489252
1.60924
1.81738
2.08211
2.31131
2.4916
2.6117
2.67366
2.68748
2.6585
2.59587
2.50687
2.40378
2.29697
2.20318
2.13682
2.11613
2.14252
2.21031
2.29439
2.36356
2.3864
2.34282
2.22801
2.05104
1.82646
1.57142
1.30391
1.02911
0.776808
0.567676
1.28443
1.47271
1.7437
1.99423
2.19877
2.33654
2.42104
2.46173
2.46251
2.42936
2.3705
2.29476
2.21298
2.14274
2.09868
2.09973
2.14479
2.22314
2.30819
2.37173
2.38552
2.33557
2.22105
2.0507
1.84113
1.60362
1.35344
1.09551
0.854172
0.644243
1.07188
1.22589
1.47242
1.71896
1.92875
2.07568
2.17804
2.24262
2.26927
2.26261
2.22908
2.1777
2.11996
2.07226
2.0497
2.07103
2.13277
2.22182
2.30812
2.36512
2.37097
2.31713
2.2034
2.04012
1.84205
1.62211
1.38911
1.14823
0.92091
0.71582
0.930812
1.04415
1.2621
1.50093
1.70313
1.84508
1.95711
2.03776
2.08457
2.0998
2.08813
2.05759
2.02056
1.99364
1.99105
2.03074
2.10685
2.20321
2.28989
2.34303
2.34299
2.28706
2.17618
2.0209
1.83473
1.63002
1.41324
1.18922
0.977314
0.780133
0.845646
0.909679
1.09375
1.32076
1.51973
1.65961
1.76989
1.85368
1.91276
1.9433
1.9484
1.93585
1.91719
1.90903
1.92393
1.97976
2.06765
2.16951
2.25621
2.30593
2.3024
2.24631
2.14089
1.99459
1.8207
1.62906
1.42806
1.22188
1.02469
0.837004
0.817617
0.818562
0.958551
1.16443
1.36076
1.50727
1.61858
1.70023
1.75966
1.79694
1.81369
1.81549
1.81243
1.82015
1.84992
1.91918
2.01598
2.1214
2.20788
2.25506
2.25023
2.19631
2.09795
1.96227
1.80108
1.62271
1.43625
1.248
1.06431
0.886459
0.860951
0.783449
0.856665
1.02571
1.21491
1.37375
1.49229
1.57371
1.62984
1.66629
1.68825
1.69967
1.70856
1.72887
1.77069
1.85026
1.95304
2.06031
2.14609
2.19191
2.18773
2.13814
2.04828
1.92483
1.7768
1.6123
1.44204
1.26901
1.09735
0.928897
0.980414
0.837285
0.820672
0.930009
1.08967
1.25208
1.38093
1.46526
1.51966
1.55452
1.57639
1.59162
1.60806
1.63727
1.68798
1.77448
1.88037
1.98787
2.07261
2.11825
2.11661
2.07331
1.99334
1.88336
1.74907
1.60013
1.44533
1.28586
1.12472
0.9648
1.17303
0.986396
0.875602
0.890202
1.00276
1.14489
1.27801
1.36848
1.42438
1.45869
1.48007
1.49467
1.51362
1.54758
1.60374
1.69367
1.79995
1.90616
1.98966
2.03619
2.03889
2.00348
1.93469
1.83863
1.71974
1.58753
1.44678
1.29929
1.14717
0.994755
1.43597
1.22985
1.04856
0.948348
0.969726
1.067
1.18487
1.28008
1.34006
1.37559
1.39701
1.41083
1.42819
1.46228
1.52013
1.61009
1.71431
1.81787
1.90003
1.94833
1.95689
1.93064
1.87427
1.7928
1.69186
1.57531
1.44714
1.31
1.16542
1.01937
1.76399
1.55168
1.33422
1.13637
1.03287
1.04249
1.11581
1.20249
1.26511
1.30294
1.32522
1.33873
1.35444
1.38425
1.43997
1.52677
1.62678
1.72647
1.80726
1.85806
1.87373
1.85795
1.81539
1.75095
1.66687
1.56466
1.44736
1.31882
1.18023
1.03923
2.15523
1.93795
1.70481
1.44773
1.22519
1.10919
1.09886
1.1479
1.20263
1.24052
1.26369
1.27735
1.29197
1.3177
1.36733
1.44809
1.54214
1.63698
1.71654
1.77056
1.79445
1.79141
1.7642
1.71567
1.64705
1.5571
1.44866
1.32678
1.19246
1.05511
2.60761
2.38272
2.13816
1.84987
1.54311
1.2957
1.16691
1.13782
1.16236
1.19177
1.2134
1.227
1.24119
1.26442
1.30926
1.38154
1.46839
1.55786
1.63704
1.69577
1.72957
1.73873
1.72515
1.69216
1.6356
1.55442
1.45289
1.33539
1.20324
1.06794
3.1229
2.88798
2.62893
2.31762
1.95778
1.60352
1.34114
1.20222
1.16218
1.1658
1.17921
1.19089
1.20514
1.22809
1.27152
1.33894
1.4208
1.50631
1.58435
1.64611
1.6878
1.70799
1.70737
1.68585
1.63771
1.56309
1.46481
1.34783
1.21459
1.07892
3.71195
3.46539
3.18693
2.84967
2.44902
2.01663
1.63258
1.36802
1.23049
1.18163
1.17353
1.1791
1.19396
1.2201
1.26752
1.33655
1.41877
1.50345
1.58117
1.64459
1.69037
1.71774
1.72694
1.71424
1.67284
1.60036
1.49738
1.37214
1.23139
1.09046
4.40499
4.14529
3.84275
3.47294
3.03133
2.53704
2.05288
1.66186
1.40615
1.27803
1.2296
1.22126
1.23757
1.27301
1.33473
1.4162
1.50584
1.59328
1.67136
1.73486
1.78159
1.81048
1.82089
1.80756
1.76379
1.68539
1.57067
1.4274
1.2655
1.10916
5.27224
4.99757
4.66793
4.26222
3.77877
3.23091
2.66535
2.15852
1.77653
1.54731
1.43904
1.40816
1.43014
1.48922
1.58639
1.70088
1.81117
1.90942
1.98747
2.04343
2.07779
2.0902
2.08037
2.04515
1.97816
1.87354
1.72804
1.54803
1.34609
1.15275
6.47573
6.1904
5.83924
5.40623
4.89404
4.31351
3.69491
3.09798
2.60231
2.26844
2.09413
2.04541
2.09694
2.22243
2.40913
2.60244
2.75697
2.86783
2.92915
2.94273
2.91534
2.85385
2.76426
2.64847
2.50185
2.31804
2.09175
1.82793
1.53771
1.26494
8.42224
8.14801
7.81018
7.3997
6.92475
6.39211
5.81399
5.22509
4.70806
4.35061
4.18725
4.21103
4.41222
4.74992
5.17633
5.55329
5.78184
5.86923
5.81731
5.64187
5.37552
5.05009
4.69048
4.31116
3.91395
3.49448
3.04383
2.56197
2.05643
1.58345
12.2034
12.0167
11.8048
11.5691
11.3344
11.105
10.859
10.6068
10.4072
10.369
10.5685
11.0382
11.7678
12.6931
13.6647
14.3928
14.7088
14.6447
14.2032
13.4559
12.4913
11.4098
10.2835
9.15424
8.04196
6.95371
5.87788
4.79619
3.70443
2.68248
20.6409
20.6596
20.7779
20.9988
21.4136
22.0051
22.668
23.3389
24.0126
24.8666
25.9993
27.4534
29.1537
30.9827
32.6146
33.685
34.0472
33.7089
32.6416
30.9937
28.9085
26.5763
24.1339
21.647
19.1532
16.6947
14.2736
11.8336
9.35117
6.95565
35.6661
35.8752
36.6927
37.8977
39.5566
41.3818
43.0551
44.574
45.8263
47.2986
49.0894
51.0969
53.064
54.8698
56.0554
56.527
56.4307
55.6793
54.2627
52.3078
49.9472
47.3486
44.6172
41.7623
38.7388
35.5593
32.2201
28.633
24.7515
20.7588
42.781
43.1238
44.7707
46.7947
48.5519
49.7675
50.531
51.1016
51.6881
52.5841
53.822
55.0456
55.8479
56.2456
55.7508
54.771
53.8722
52.7879
51.5884
50.3256
49.1139
48.0025
47.02
46.1449
45.2467
44.2522
43.1263
41.8783
40.4562
38.7809
8.86094
11.3713
12.4816
13.1994
13.5229
13.5001
13.2049
12.7079
12.0595
11.309
10.4872
9.63855
8.77999
7.96715
7.22605
6.61759
6.18363
6.05388
6.26278
6.5971
6.69567
6.35138
5.54442
4.39492
3.10305
1.87793
0.918651
0.146804
0.557081
0.522551
5.24401
5.94599
6.31424
6.57009
6.676
6.63295
6.46335
6.19895
5.86616
5.48832
5.08656
4.67762
4.27889
3.90544
3.58235
3.33212
3.19295
3.23866
3.50439
3.84563
4.03567
3.95057
3.59441
3.03793
2.36415
1.64178
0.975373
0.480774
0.331386
0.243457
4.73765
5.17452
5.42677
5.56835
5.603
5.53914
5.3902
5.17209
4.90073
4.59266
4.26473
3.93127
3.60744
3.3082
3.05449
2.86999
2.78304
2.8545
3.10857
3.42661
3.62725
3.60268
3.35937
2.94134
2.39128
1.78101
1.18099
0.662847
0.406082
0.293428
4.45136
4.77695
4.99601
5.12046
5.15351
5.10482
4.98291
4.79991
4.5677
4.29978
4.01105
3.71512
3.42637
3.16231
2.9435
2.79338
2.73614
2.82227
3.05807
3.33976
3.52644
3.51783
3.32036
2.95854
2.48254
1.93433
1.37162
0.84322
0.502315
0.327473
4.15958
4.39518
4.60207
4.74014
4.79883
4.78426
4.69831
4.55216
4.35689
4.12491
3.87004
3.60562
3.3471
3.11305
2.92441
2.80578
2.77802
2.87965
3.10054
3.35069
3.50351
3.4924
3.31075
2.987
2.5589
2.05922
1.53329
1.0128
0.622059
0.390887
3.81324
3.96903
4.17236
4.3359
4.43378
4.46197
4.41922
4.31372
4.15716
3.96212
3.74202
3.51023
3.28249
3.07958
2.92269
2.83718
2.84134
2.95979
3.16721
3.38189
3.50324
3.47641
3.29931
2.99845
2.60754
2.15039
1.66185
1.16391
0.751335
0.476474
3.42835
3.5113
3.70671
3.89644
4.03744
4.11141
4.11564
4.05346
3.93789
3.78191
3.59894
3.40224
3.2075
3.03796
2.91551
2.86666
2.90443
3.04028
3.23516
3.41556
3.50358
3.45694
3.27838
2.99133
2.63035
2.21119
1.75976
1.29155
0.878917
0.574969
3.0079
3.03489
3.22028
3.43248
3.61402
3.73331
3.78249
3.76567
3.69293
3.57762
3.43351
3.27389
3.11526
2.9814
2.89606
2.88646
2.95902
3.11113
3.29361
3.44142
3.49616
3.42953
3.24656
2.97034
2.62968
2.24588
1.83067
1.39542
0.996512
0.678156
2.5593
2.55417
2.73364
2.96308
3.17824
3.33759
3.42843
3.4545
3.42482
3.3507
3.24646
3.12526
3.00462
2.90899
2.8627
2.89398
3.00085
3.1668
3.33642
3.45412
3.4781
3.39217
3.20437
2.93756
2.61598
2.26044
1.87869
1.47725
1.09944
0.777626
2.11855
2.09817
2.27276
2.51227
2.75091
2.94079
3.06666
3.13016
3.14057
3.10667
3.04196
2.95947
2.8776
2.82173
2.81591
2.88829
3.02723
3.20356
3.35928
3.45257
3.44698
3.34402
3.15301
2.89551
2.59181
2.25878
1.90837
1.54016
1.18632
0.868399
1.76469
1.71797
1.87515
2.11301
2.35863
2.56377
2.71299
2.80619
2.84988
2.85281
2.8257
2.78089
2.73768
2.72219
2.75599
2.86878
3.03626
3.2186
3.36351
3.43055
3.40163
3.28531
3.09406
2.84649
2.55991
2.24871
1.92531
1.59004
1.25751
0.948539
1.49492
1.41253
1.54122
1.76648
2.01078
2.22305
2.38566
2.49668
2.56508
2.59749
2.60395
2.59451
2.58887
2.61183
2.68428
2.83502
3.02681
3.21404
3.34303
3.38838
3.34161
3.2167
3.02917
2.79233
2.52278
2.23315
1.93647
1.6268
1.31396
1.01668
1.30505
1.18142
1.2708
1.47178
1.70673
1.92042
2.09046
2.21383
2.29814
2.35083
2.38392
2.40566
2.43424
2.49269
2.60209
2.78665
2.9966
3.18273
3.29958
3.32645
3.26752
3.13932
2.95814
2.73456
2.48297
2.21619
1.94212
1.65203
1.35679
1.07222
1.19929
1.03199
1.06834
1.23011
1.44544
1.65483
1.82855
1.95953
2.05484
2.12218
2.17306
2.21949
2.27741
2.36762
2.51057
2.72353
2.94571
3.12816
3.23366
3.24635
3.1808
3.05429
2.8828
2.67528
2.44382
2.1993
1.94061
1.66738
1.38744
1.11559
1.19552
0.988532
0.949645
1.05206
1.23133
1.42679
1.59945
1.73465
1.83715
1.91474
1.97868
2.04137
2.12225
2.23941
2.41104
2.64609
2.87499
3.05207
3.14727
3.15079
3.08383
2.96377
2.80572
2.61775
2.40954
2.18184
1.93543
1.67501
1.40766
1.14779
1.27362
1.05023
0.938496
0.958316
1.07811
1.24236
1.40467
1.53971
1.64607
1.73028
1.80339
1.87683
1.97275
2.11118
2.30544
2.55592
2.7867
2.95763
3.04473
3.04419
2.98082
2.87183
2.73158
2.56865
2.37966
2.16436
1.92773
1.67627
1.41922
1.17019
1.4452
1.21556
1.05148
0.976688
1.01072
1.11707
1.2514
1.37738
1.48292
1.57016
1.649
1.7301
1.83365
1.98698
2.19698
2.45646
2.68581
2.85071
2.93283
2.93341
2.87899
2.78607
2.67115
2.52946
2.35397
2.14843
1.91891
1.67378
1.42403
1.18431
1.72792
1.49018
1.29071
1.13528
1.05987
1.07659
1.15596
1.25545
1.3513
1.43663
1.51768
1.60351
1.71298
1.87271
2.0917
2.35481
2.5812
2.74131
2.82226
2.83017
2.79193
2.72333
2.62936
2.50065
2.3349
2.1359
1.91053
1.66924
1.42367
1.19173
2.12183
1.87037
1.64342
1.42799
1.2507
1.15254
1.14037
1.18927
1.25941
1.33471
1.41338
1.50123
1.61626
1.77909
2.00144
2.26437
2.48881
2.64731
2.73194
2.7571
2.74004
2.69047
2.60791
2.48647
2.32539
2.12897
1.90466
1.66442
1.42102
1.19435
2.62754
2.35418
2.0975
1.83497
1.57644
1.36339
1.23718
1.19937
1.22248
1.27525
1.34444
1.43221
1.55459
1.72415
1.95045
2.21092
2.43861
2.60338
2.69989
2.7383
2.73671
2.69983
2.62416
2.50355
2.33653
2.13402
1.90415
1.66153
1.41793
1.19405
3.2534
2.94891
2.65461
2.34591
2.02192
1.71063
1.46507
1.31915
1.26611
1.27493
1.32958
1.41634
1.54712
1.73283
1.97715
2.24877
2.48623
2.65875
2.76404
2.81282
2.82036
2.78754
2.71115
2.58559
2.40555
2.17781
1.92601
1.66865
1.41765
1.19341
4.02398
3.67981
3.33886
2.97855
2.5942
2.20172
1.84855
1.58723
1.43843
1.38714
1.41207
1.49778
1.64838
1.86627
2.15212
2.45754
2.7157
2.90045
3.01354
3.06473
3.06679
3.01906
2.92115
2.76946
2.56041
2.29786
2.00223
1.70679
1.4327
1.19816
4.99718
4.607
4.21337
3.79721
3.35434
2.89383
2.45273
2.08584
1.83533
1.71265
1.7016
1.79301
1.98396
2.26827
2.64455
3.02363
3.32196
3.52713
3.64121
3.67538
3.63901
3.53685
3.37492
3.15514
2.87788
2.54907
2.18522
1.82328
1.49206
1.22404
6.30178
5.86561
5.42302
4.95826
4.46912
3.96191
3.46441
3.02408
2.69394
2.51281
2.48327
2.61374
2.90088
3.328
3.89199
4.41531
4.78829
5.01545
5.10368
5.06429
4.91118
4.6648
4.34589
3.96901
3.54192
3.07389
2.58161
2.09858
1.66319
1.31618
8.22569
7.76414
7.30123
6.8245
6.33428
5.83787
5.3575
4.93052
4.61198
4.46158
4.51077
4.80059
5.32997
6.07154
6.99912
7.78
8.26401
8.48649
8.45982
8.19965
7.74858
7.15739
6.47814
5.75281
5.00167
4.23878
3.47917
2.75221
2.0974
1.57385
11.4434
11.0231
10.6161
10.2225
9.84698
9.50502
9.22048
9.02071
8.95005
9.08706
9.49295
10.2341
11.3054
12.6567
14.1836
15.3326
15.9259
16.0537
15.711
14.9596
13.8861
12.5948
11.1926
9.76473
8.35476
6.98615
5.67059
4.42432
3.28431
2.34701
17.5142
17.2498
17.016
16.8774
16.8315
16.9198
17.1602
17.5526
18.1205
18.944
20.106
21.6763
23.619
25.8216
28.0252
29.4656
30.052
29.9135
29.0384
27.5532
25.5901
23.3113
20.8611
18.3599
15.8802
13.4645
11.1424
8.89478
6.74806
4.86512
28.7156
28.7863
29.0078
29.3612
29.9243
30.746
31.7832
32.9781
34.3394
35.9821
37.9987
40.4033
43.0913
45.7804
48.0012
48.9573
49.0655
48.372
46.9688
44.9664
42.5084
39.7416
36.7542
33.5917
30.2721
26.8264
23.3514
19.7996
16.1706
12.6982
43.5244
43.6442
44.6775
46.1636
47.8264
49.4254
50.857
52.2395
53.6839
55.4169
57.5172
59.7984
61.9868
63.4496
63.7583
62.4716
61.1512
59.5179
57.8084
55.9738
54.1599
52.4331
50.7688
49.0256
47.0392
44.7054
41.7907
38.3757
34.4989
30.3591
47.2653
48.0008
49.7789
51.8999
53.7991
55.1979
56.127
56.8297
57.581
58.6005
59.8562
61.0003
61.6261
61.4526
59.9792
57.2514
55.109
53.0581
51.3764
49.9973
49.0388
48.475
48.2459
48.1987
48.1373
47.911
47.4453
46.73
45.7367
44.5396
12.2422
15.4838
16.7449
17.4454
17.7745
17.7131
17.3213
16.6768
15.8383
14.865
13.789
12.6676
11.5153
10.4134
9.39897
8.58152
8.08551
8.3281
9.41434
10.6551
11.1683
10.6681
9.28432
7.32909
5.12866
3.016
1.36831
0.643505
0.553269
0.534093
7.02288
7.83006
8.18092
8.36934
8.44217
8.36764
8.14994
7.81861
7.40416
6.93139
6.42469
5.90114
5.38738
4.898
4.47557
4.15036
4.01932
4.30762
5.08625
5.92803
6.34173
6.19654
5.60971
4.73918
3.7086
2.5694
1.47179
0.615599
0.303049
0.250286
6.41063
6.83492
7.04898
7.14891
7.14724
7.04278
6.84292
6.56029
6.21298
5.81767
5.39358
4.95494
4.52583
4.12429
3.78568
3.54079
3.46229
3.73532
4.39816
5.11254
5.50319
5.45064
5.04743
4.42295
3.62362
2.68943
1.73963
0.864624
0.42183
0.274383
6.13555
6.38955
6.57504
6.67623
6.68315
6.5971
6.42458
6.17599
5.86591
5.50839
5.121
4.71711
4.32177
3.95693
3.65773
3.45463
3.41385
3.69204
4.27838
4.88834
5.23882
5.20787
4.88081
4.34501
3.65229
2.83745
1.97181
1.11231
0.560518
0.322656
5.84746
5.98684
6.16674
6.29653
6.34283
6.2999
6.16636
5.95455
5.67935
5.35486
4.99781
4.6236
4.25727
3.92298
3.65944
3.49686
3.50132
3.79743
4.33325
4.85633
5.13807
5.0951
4.79533
4.30358
3.68194
2.95097
2.15669
1.33668
0.71965
0.401099
5.47686
5.53063
5.70829
5.87825
5.978
5.99003
5.90608
5.73784
5.50242
5.21514
4.89307
4.55117
4.21678
3.91867
3.69171
3.57684
3.63537
3.95689
4.44677
4.88916
5.09685
5.02501
4.72663
4.26076
3.68295
3.02245
2.29574
1.52772
0.889205
0.505157
5.03518
5.02047
5.19138
5.39808
5.55418
5.62333
5.59629
5.47856
5.28973
5.04585
4.76563
4.46112
4.16365
3.90482
3.72474
3.66669
3.78754
4.13656
4.5831
4.94152
5.07741
4.96724
4.65909
4.20871
3.66476
3.05899
2.39443
1.68373
1.0542
0.624283
4.54231
4.46123
4.62537
4.86165
5.06937
5.1951
5.22726
5.16596
5.02883
4.83375
4.6015
4.34219
4.08675
3.87478
3.74926
3.75682
3.94525
4.31832
4.72075
4.99886
5.06246
4.90975
4.58771
4.14725
3.63068
3.0655
2.45906
1.80745
1.20468
0.748988
4.01089
3.86878
4.02742
4.28587
4.53725
4.7158
4.80492
4.80197
4.72031
4.57862
4.39964
4.19147
3.98512
3.82683
3.76313
3.84408
4.10071
4.49028
4.84554
5.04658
5.04095
4.84699
4.51142
4.07864
3.58535
3.05526
2.49862
1.90519
1.33561
0.869679
3.44732
3.26862
3.42056
3.69345
3.98001
4.20348
4.34573
4.39652
4.37195
4.28632
4.16409
4.01135
3.86075
3.76259
3.76699
3.92685
4.24742
4.6426
4.94682
5.07482
5.00648
4.77698
4.43084
4.00581
3.53386
3.03642
2.52549
1.98228
1.44413
0.980103
2.92722
2.72519
2.85792
3.12849
3.42884
3.68334
3.86907
3.96784
3.9959
3.96627
3.9018
3.80658
3.71722
3.68535
3.76184
4.00332
4.37858
4.76645
5.01634
5.07677
4.95553
4.69894
4.34747
3.93213
3.48128
3.0159
2.54013
2.03467
1.52824
1.07591
2.48704
2.25247
2.35514
2.60949
2.9109
3.18348
3.39919
3.53639
3.60856
3.63005
3.62118
3.58326
3.56001
3.59697
3.74902
4.07058
4.48667
4.85408
5.04828
5.04812
4.88678
4.61347
4.2636
3.86128
3.43345
2.9933
2.53784
2.0649
1.5896
1.1548
2.13087
1.86006
1.9234
2.14873
2.43873
2.71788
2.95134
3.11923
3.22816
3.29171
3.33142
3.34984
3.39325
3.50061
3.72948
4.12465
4.56422
4.89922
5.04144
4.99073
4.80217
4.52332
4.18282
3.79793
3.39285
2.96656
2.52546
2.07573
1.62918
1.21538
1.85704
1.55825
1.57385
1.75672
2.02163
2.29551
2.53708
2.72694
2.86564
2.9649
3.0435
3.11369
3.22139
3.40071
3.70416
4.16118
4.60522
4.90532
4.99577
4.90841
4.70645
4.43358
4.11068
3.75004
3.35674
2.93594
2.50475
2.07124
1.64961
1.25807
1.68678
1.36703
1.32213
1.44802
1.67136
1.92584
2.16542
2.36734
2.5285
2.65714
2.76881
2.88325
3.05058
3.30182
3.67421
4.17676
4.61295
4.86842
4.91779
4.80947
4.60838
4.35409
4.05807
3.71334
3.32189
2.90299
2.47776
2.05698
1.65305
1.28425
1.63514
1.31575
1.19373
1.24441
1.40545
1.62208
1.84653
2.04961
2.22454
2.37541
2.51588
2.66673
2.88842
3.20848
3.64191
4.17492
4.58514
4.80157
4.82125
4.70913
4.52339
4.30101
4.02409
3.68264
3.28947
2.86917
2.4465
2.03502
1.64556
1.29657
1.6987
1.38773
1.21271
1.17175
1.24814
1.4034
1.59349
1.78454
1.96255
2.12788
2.29228
2.47619
2.74446
3.12701
3.61234
4.15729
4.53867
4.72264
4.72996
4.63125
4.48258
4.27485
4.00298
3.65928
3.26108
2.83656
2.41332
2.00783
1.63021
1.29666
1.88443
1.58227
1.36999
1.24822
1.22301
1.29496
1.42522
1.58553
1.75349
1.92361
2.10666
2.32095
2.63157
3.0684
3.59724
4.1441
4.49924
4.6637
4.68209
4.61896
4.47965
4.27845
3.99808
3.64661
3.23986
2.80816
2.3811
1.97828
1.60962
1.28997
2.23027
1.91807
1.67119
1.47992
1.3563
1.3176
1.36503
1.47153
1.61116
1.77509
1.97101
2.21743
2.57337
3.04812
3.6211
4.1696
4.51359
4.68292
4.74042
4.69223
4.55184
4.35481
4.0463
3.66005
3.23156
2.78869
2.35386
1.94993
1.58686
1.27859
2.74209
2.40028
2.11287
1.86003
1.64724
1.49893
1.4369
1.45871
1.55669
1.70304
1.90851
2.18458
2.58676
3.11869
3.73526
4.30007
4.67077
4.86908
4.93806
4.8783
4.74967
4.52873
4.18512
3.74534
3.2642
2.78616
2.33735
1.92739
1.5657
1.26533
3.42714
3.04036
2.70292
2.3899
2.09918
1.85017
1.67675
1.60106
1.62726
1.74477
1.96008
2.27736
2.74887
3.35921
4.05793
4.67098
5.08552
5.30676
5.35825
5.28457
5.14757
4.86414
4.4557
3.95115
3.39601
2.84594
2.34874
1.91787
1.55142
1.25417
4.3173
3.87369
3.47777
3.10338
2.74348
2.40942
2.13515
1.96041
1.90841
1.98693
2.21417
2.59185
3.16949
3.91056
4.75479
5.46811
5.94344
6.16918
6.18871
6.10937
5.88525
5.4832
4.95399
4.34312
3.69071
3.0461
2.45279
1.95565
1.5565
1.25081
5.4898
4.98448
4.5287
4.09704
3.68012
3.28273
2.93338
2.67906
2.56382
2.61417
2.87714
3.36078
4.10671
5.06827
6.16292
7.0405
7.60317
7.80188
7.81047
7.65688
7.23556
6.61672
5.87522
5.07539
4.2614
3.47306
2.74628
2.13043
1.64152
1.28653
7.11439
6.55737
6.05656
5.58859
5.14335
4.72258
4.35009
4.07457
3.95344
4.04025
4.41185
5.09756
6.13329
7.44476
8.94715
10.0514
10.7255
10.8996
10.8778
10.4561
9.69426
8.70391
7.60234
6.47767
5.37869
4.3399
3.3898
2.5697
1.91516
1.44423
9.5613
8.98994
8.48663
8.03513
7.62586
7.26357
6.97264
6.80417
6.82049
7.10833
7.75445
8.82028
10.3317
12.1645
14.2435
15.5732
16.3537
16.5502
16.238
15.3927
14.1034
12.5341
10.8626
9.21572
7.63591
6.16047
4.80765
3.61181
2.62355
1.89129
13.5898
13.1039
12.6664
12.3268
12.0691
11.9127
11.8815
12.039
12.4495
13.1953
14.3641
16.04
18.2285
20.7211
23.4053
24.8064
25.5203
25.5147
24.776
23.408
21.5023
19.2301
16.8308
14.4774
12.1935
10.0336
8.00749
6.13762
4.49125
3.2012
20.4051
20.156
19.9961
19.8995
19.9369
20.1811
20.6341
21.3433
22.3612
23.7614
25.6075
27.9936
30.889
33.9162
36.8449
37.4636
37.2323
36.3387
35.0851
33.4239
31.4265
29.145
26.5338
23.6697
20.7031
17.7736
14.8937
12.0454
9.31933
6.99056
31.0064
30.9506
31.2446
31.7745
32.416
33.176
34.1351
35.3427
36.8516
38.7305
41.018
43.7686
46.8744
49.5953
51.1729
49.1731
47.5032
45.6697
44.0833
42.4767
40.8965
39.2802
37.5463
35.5802
33.2702
30.4821
27.2667
23.7417
19.9933
16.455
42.3068
42.5759
43.5565
44.8599
46.2328
47.552
48.7881
50.0515
51.4443
53.0901
55.0341
57.1302
59.3
60.0796
59.2422
54.5866
51.5467
48.9483
47.1582
45.8532
45.0596
44.6359
44.4062
44.1322
43.546
42.5095
40.8824
38.672
35.9151
32.8688
43.6421
44.7468
46.5357
48.5188
50.3197
51.7451
52.8103
53.6946
54.6198
55.741
56.9988
58.082
58.6802
57.7403
54.7527
48.7835
45.1642
42.3475
40.5858
39.5054
39.1831
39.5493
40.3921
41.4294
42.4001
43.1233
43.4884
43.451
43.0811
42.5434
16.2464
20.1962
21.5318
22.0887
22.3037
22.1253
21.5802
20.7443
19.6776
18.4427
17.0651
15.6117
14.0937
12.6255
11.2636
10.1973
9.74095
11.0088
14.0956
17.0366
18.0937
17.1756
14.8454
11.7771
8.38764
5.04602
2.30067
0.15021
0.12719
0.49494
9.07288
9.9193
10.2129
10.2948
10.2956
10.1672
9.89255
9.48989
8.98941
8.41399
7.79111
7.13283
6.47812
5.83681
5.28267
4.84849
4.75644
5.57184
7.34907
8.97247
9.59567
9.25553
8.30743
7.05556
5.62642
4.04291
2.37308
0.783777
0.234554
0.243362
8.27612
8.6261
8.74325
8.76604
8.70569