/*--------------------------------*- C++ -*----------------------------------*\
| =========                 |                                                 |
| \\      /  F ield         | OpenFOAM: The Open Source CFD Toolbox           |
|  \\    /   O peration     | Version:  5.0                                   |
|   \\  /    A nd           | Web:      www.OpenFOAM.org                      |
|    \\/     M anipulation  |                                                 |
\*---------------------------------------------------------------------------*/
FoamFile
{
    version     2.0;
    format      ascii;
    class       volScalarField;
    location    "1550/air";
    object      k;
}
// * * * * * * * * * * * * * * * * * * * * * * * * * * * * * * * * * * * * * //

dimensions      [0 2 -2 0 0 0 0];

internalField   nonuniform List<scalar> 
243000
(
0.071215
0.080103
0.0831866
0.0840874
0.0832476
0.0811505
0.0781334
0.0744961
0.0704721
0.0662901
0.0620784
0.0579339
0.0538711
0.0500011
0.0463938
0.0432189
0.0406139
0.0387991
0.0377786
0.0373286
0.0369653
0.0361601
0.0345187
0.0319029
0.0285122
0.026958
0.0249722
0.0228854
0.0191575
0.0185152
0.106569
0.119803
0.12299
0.122727
0.120263
0.11632
0.111433
0.105995
0.100267
0.094458
0.0886663
0.082994
0.0774796
0.0723019
0.0675753
0.0635109
0.0602714
0.058195
0.0572484
0.0571257
0.0571454
0.0565876
0.0548305
0.0516069
0.0470946
0.0416895
0.0358354
0.0298083
0.024191
0.021873
0.123298
0.137401
0.141865
0.142003
0.139474
0.135193
0.129781
0.123688
0.117214
0.110622
0.10403
0.0975823
0.0913489
0.0855584
0.0803557
0.0759959
0.0726583
0.0706902
0.069961
0.0700536
0.0702042
0.0696595
0.0677427
0.0641311
0.0589652
0.0525565
0.0453888
0.0374651
0.0302266
0.0252484
0.130202
0.145437
0.151351
0.152684
0.150955
0.147198
0.142052
0.136004
0.129403
0.122563
0.115648
0.108856
0.102293
0.0962393
0.0908791
0.0865141
0.0833338
0.0816518
0.0811986
0.0814424
0.0815932
0.0809254
0.0787878
0.0748494
0.0692103
0.0621491
0.0541353
0.0450926
0.0365737
0.0300376
0.130211
0.145559
0.153822
0.157075
0.156696
0.153997
0.149615
0.144075
0.137779
0.131081
0.124202
0.11739
0.110795
0.104751
0.0994765
0.09532
0.0924708
0.091173
0.091011
0.0913549
0.0914334
0.0905738
0.088192
0.0839818
0.0780162
0.0705443
0.0620159
0.0523405
0.0428232
0.0351594
0.12593
0.141405
0.151522
0.156694
0.158087
0.156773
0.153477
0.148754
0.143062
0.136791
0.130211
0.123623
0.117223
0.111398
0.106388
0.102597
0.100195
0.0993333
0.0994538
0.0998661
0.099839
0.0987598
0.0961326
0.0916961
0.085512
0.0778097
0.0689973
0.0590011
0.048766
0.0402429
0.118141
0.13424
0.145949
0.152995
0.156197
0.156497
0.154452
0.150675
0.145801
0.140175
0.134097
0.127916
0.121881
0.116432
0.111819
0.108506
0.106623
0.106218
0.106606
0.107071
0.106927
0.105629
0.102771
0.0981475
0.0918243
0.0840149
0.0750801
0.0649684
0.0543045
0.0451077
0.107865
0.124831
0.137981
0.146796
0.151811
0.153724
0.1531
0.15056
0.146577
0.141624
0.136199
0.130569
0.125025
0.120062
0.115949
0.11319
0.111863
0.111912
0.112551
0.113064
0.11281
0.111314
0.108252
0.10348
0.0970756
0.0892434
0.080302
0.0702438
0.0593837
0.0496896
0.0968008
0.114222
0.128519
0.138869
0.145577
0.14907
0.149885
0.148593
0.145671
0.141664
0.136887
0.13184
0.12688
0.122479
0.118932
0.116773
0.116017
0.116496
0.117374
0.117938
0.117594
0.115933
0.112704
0.107824
0.101385
0.0935912
0.0847494
0.0747631
0.0638736
0.053922
0.0865168
0.103892
0.11878
0.130023
0.138113
0.143051
0.145254
0.145245
0.143435
0.14036
0.136397
0.132049
0.127653
0.123856
0.120909
0.119365
0.11917
0.120053
0.121153
0.121775
0.121371
0.119587
0.116238
0.111292
0.104864
0.0971813
0.0884227
0.0785397
0.0677896
0.057765
0.0776816
0.0937878
0.109096
0.121261
0.13025
0.136191
0.139636
0.14084
0.140156
0.138048
0.134917
0.131275
0.127553
0.124346
0.122004
0.121066
0.121401
0.122657
0.123965
0.124657
0.124227
0.122367
0.11895
0.113986
0.107631
0.100039
0.0913786
0.0816306
0.0711732
0.0611909
0.071473
0.0842191
0.09937
0.112382
0.122362
0.129241
0.133501
0.135715
0.136086
0.134937
0.132649
0.129739
0.126665
0.124071
0.122322
0.121962
0.122784
0.124382
0.125884
0.126658
0.12624
0.124356
0.120926
0.116011
0.109727
0.10224
0.093688
0.0840854
0.074038
0.0642054
0.069295
0.0761134
0.0897776
0.103297
0.114286
0.122202
0.127375
0.130326
0.131488
0.131224
0.129756
0.127577
0.12515
0.123147
0.121963
0.122132
0.123387
0.125294
0.126984
0.127852
0.12748
0.125626
0.122259
0.117411
0.111221
0.103852
0.0954173
0.0859919
0.0764204
0.0668116
0.0724145
0.0713114
0.0810532
0.0941247
0.105937
0.11495
0.121139
0.124926
0.126769
0.127129
0.126399
0.124917
0.123118
0.121677
0.121014
0.121655
0.123286
0.125461
0.127332
0.128311
0.128008
0.126247
0.122967
0.118227
0.112167
0.104933
0.0966372
0.0876406
0.0784454
0.0690593
0.0808589
0.0723136
0.0750632
0.0855074
0.0974245
0.107423
0.114701
0.119423
0.122029
0.12299
0.122762
0.121888
0.120669
0.11975
0.119561
0.120606
0.12255
0.124948
0.126989
0.128101
0.127884
0.126201
0.123043
0.11847
0.112597
0.105535
0.0974528
0.0889739
0.0801447
0.0709778
0.0935571
0.080765
0.0745102
0.0791029
0.0893065
0.0997241
0.108019
0.113749
0.1172
0.118832
0.119124
0.11864
0.117909
0.117457
0.117678
0.119057
0.121252
0.123831
0.12603
0.127287
0.127198
0.125666
0.122647
0.11824
0.112547
0.1057
0.0980934
0.0900497
0.0815525
0.0725927
0.108616
0.0947591
0.0820534
0.0776389
0.0830152
0.0923377
0.101192
0.107884
0.11224
0.114609
0.115473
0.115396
0.114963
0.114887
0.115439
0.117081
0.119466
0.122185
0.124526
0.125937
0.126009
0.12466
0.121845
0.117634
0.112149
0.105625
0.0985236
0.0908847
0.0826913
0.073922
0.123911
0.111076
0.0960894
0.0838929
0.0809829
0.0864652
0.0946382
0.101926
0.107145
0.110293
0.111779
0.112157
0.112017
0.11214
0.112929
0.114755
0.117269
0.120087
0.12255
0.12412
0.124382
0.123245
0.120685
0.116708
0.111471
0.105436
0.098776
0.0915013
0.0835804
0.0749809
0.139768
0.127765
0.112946
0.0970143
0.0857382
0.0840674
0.0893017
0.0962099
0.102003
0.105892
0.108025
0.108897
0.109097
0.109358
0.110243
0.112165
0.114746
0.117622
0.120182
0.121909
0.122384
0.121488
0.119207
0.115519
0.110724
0.105144
0.098875
0.0919235
0.0842391
0.0757824
0.156077
0.144323
0.13029
0.113714
0.0972287
0.0873007
0.0866813
0.0914384
0.0970691
0.101478
0.104223
0.105607
0.106178
0.10663
0.107527
0.109414
0.111987
0.114877
0.117508
0.119385
0.120085
0.119454
0.117478
0.114218
0.109919
0.104767
0.0988469
0.0921787
0.0846908
0.0763398
0.172707
0.160992
0.147558
0.131372
0.112937
0.0966179
0.0884568
0.0886976
0.0928451
0.0972416
0.100432
0.102297
0.103253
0.103935
0.104895
0.106656
0.109112
0.111959
0.114627
0.116635
0.117562
0.117215
0.115655
0.11291
0.109084
0.104336
0.0987369
0.0923055
0.0849688
0.0766801
0.189488
0.177807
0.164696
0.148934
0.130185
0.110406
0.0953117
0.0891913
0.0900874
0.0935289
0.0967915
0.0990179
0.100336
0.101267
0.102332
0.104027
0.106354
0.109077
0.111731
0.113848
0.115029
0.115035
0.11389
0.11162
0.108252
0.103892
0.0985873
0.0923508
0.0851174
0.076841
0.206311
0.195004
0.181841
0.166196
0.147524
0.126351
0.106444
0.093649
0.0896082
0.0908474
0.0935481
0.0958828
0.0974793
0.0986498
0.0998477
0.101527
0.103761
0.106378
0.109005
0.11121
0.112613
0.112956
0.112204
0.110382
0.107463
0.103487
0.0984619
0.0923783
0.0851949
0.0768701
0.223495
0.211891
0.198532
0.182856
0.164316
0.142756
0.120187
0.101839
0.0920659
0.089794
0.0910848
0.0931079
0.0948122
0.0961725
0.0975128
0.0992146
0.101386
0.103916
0.106504
0.108779
0.110377
0.111033
0.110653
0.109258
0.10678
0.103192
0.0984333
0.0924892
0.0852926
0.0768448
0.239548
0.227836
0.214422
0.198781
0.180394
0.158904
0.135192
0.113047
0.0977802
0.0910679
0.0899876
0.0911332
0.0926691
0.0941218
0.0955963
0.0973538
0.0994939
0.101951
0.104491
0.106798
0.108547
0.109476
0.109439
0.108443
0.106362
0.103129
0.0986627
0.092848
0.0855926
0.0769065
0.255349
0.243534
0.23009
0.214541
0.196396
0.175229
0.1513
0.127015
0.107292
0.0958061
0.0914968
0.0910633
0.0920887
0.0935177
0.0951325
0.0969996
0.099147
0.101533
0.103985
0.106245
0.108031
0.109109
0.109334
0.108628
0.106877
0.103963
0.0997336
0.0939809
0.0865074
0.0773658
0.272394
0.260687
0.247401
0.232128
0.214449
0.193962
0.170585
0.145671
0.123068
0.107225
0.0992122
0.0966465
0.0968205
0.0981826
0.100055
0.102146
0.104315
0.106551
0.108736
0.110687
0.112201
0.113095
0.113245
0.112537
0.110834
0.107981
0.103754
0.0977945
0.0898105
0.0796946
0.294745
0.283562
0.270937
0.256652
0.240451
0.22196
0.200854
0.177654
0.154848
0.136664
0.125803
0.121374
0.120911
0.122531
0.124961
0.127379
0.129387
0.13103
0.132262
0.133047
0.133323
0.133042
0.132123
0.130457
0.127842
0.124097
0.118976
0.111958
0.102465
0.0900128
0.339188
0.329968
0.320381
0.310353
0.299618
0.287604
0.273586
0.257455
0.240092
0.224866
0.215111
0.211161
0.211196
0.21372
0.216803
0.219203
0.220224
0.220226
0.219252
0.217417
0.21489
0.211819
0.208226
0.20397
0.198402
0.191572
0.183724
0.173827
0.16112
0.144899
0.504852
0.503119
0.503934
0.50455
0.504357
0.502841
0.499327
0.49391
0.485291
0.47636
0.469871
0.466148
0.464436
0.465187
0.466571
0.467823
0.46758
0.467443
0.467114
0.466974
0.466916
0.467077
0.467245
0.467123
0.463346
0.457451
0.452443
0.44425
0.433207
0.418931
0.104543
0.121738
0.128295
0.130573
0.129808
0.126878
0.122445
0.117032
0.11099
0.104625
0.0981057
0.0916558
0.0853665
0.0795163
0.0742401
0.0698689
0.0666001
0.0648504
0.0646247
0.0651909
0.0651525
0.0633088
0.0590013
0.0521769
0.0434289
0.0335964
0.0251545
0.0227234
0.0208308
0.0199151
0.162202
0.186356
0.191938
0.189907
0.183687
0.175158
0.165449
0.155271
0.145047
0.135076
0.125469
0.116418
0.107933
0.100336
0.0937583
0.0885981
0.0850195
0.0837397
0.0846768
0.0869385
0.0887259
0.088454
0.0848368
0.0774586
0.0669849
0.0544774
0.0416796
0.0315675
0.0321048
0.0268992
0.19064
0.218168
0.227609
0.227556
0.222304
0.213968
0.203838
0.19276
0.181289
0.169865
0.158697
0.148088
0.138109
0.129238
0.121711
0.116052
0.11241
0.111482
0.112854
0.115444
0.117346
0.116938
0.112734
0.104182
0.0918369
0.0767405
0.0606521
0.0447024
0.0376527
0.0353336
0.200349
0.229878
0.242687
0.245447
0.2427
0.236349
0.22759
0.217319
0.206195
0.194749
0.183307
0.172291
0.161871
0.152667
0.145043
0.139612
0.136487
0.136158
0.137848
0.14037
0.141902
0.140948
0.13607
0.126639
0.113126
0.0964653
0.0782925
0.0590819
0.0456623
0.0384495
0.198322
0.226132
0.242261
0.249622
0.250503
0.247041
0.240534
0.231947
0.222047
0.211414
0.200511
0.18985
0.179722
0.170873
0.163776
0.159103
0.156898
0.157322
0.159296
0.161584
0.162564
0.160926
0.155394
0.145366
0.131215
0.113756
0.0944822
0.0735753
0.0561535
0.044547
0.189784
0.21557
0.234091
0.2448
0.249329
0.249186
0.24536
0.238913
0.230773
0.221475
0.211669
0.201905
0.192595
0.184601
0.178478
0.174945
0.173926
0.175176
0.177402
0.179383
0.179756
0.177399
0.171267
0.160847
0.146431
0.128715
0.109025
0.0874381
0.0677907
0.0528703
0.175829
0.199283
0.219512
0.233462
0.241648
0.244904
0.244088
0.240087
0.233822
0.226175
0.217919
0.209438
0.201324
0.194555
0.189724
0.187609
0.187917
0.190018
0.192476
0.194138
0.193907
0.190856
0.184193
0.17352
0.159094
0.141504
0.121879
0.100276
0.0796204
0.0624284
0.156704
0.178239
0.200322
0.217462
0.229237
0.235635
0.237596
0.23623
0.232341
0.226857
0.220177
0.213228
0.206583
0.201305
0.197986
0.197482
0.199156
0.202106
0.204786
0.206162
0.205372
0.201702
0.194589
0.183774
0.16951
0.15231
0.133099
0.111921
0.0910679
0.0724321
0.134468
0.154701
0.178336
0.198521
0.21356
0.222643
0.227274
0.228586
0.227186
0.223873
0.219214
0.213996
0.208935
0.205325
0.203657
0.204859
0.207894
0.211659
0.214558
0.215708
0.214443
0.210256
0.202799
0.191952
0.177983
0.161358
0.142818
0.122372
0.101875
0.0823355
0.116814
0.133778
0.156966
0.178945
0.196111
0.207469
0.214621
0.218521
0.219593
0.218477
0.215774
0.212327
0.209009
0.207042
0.207074
0.209977
0.214342
0.218866
0.221986
0.222987
0.221359
0.216786
0.209112
0.198352
0.184804
0.168915
0.151102
0.13144
0.111629
0.0917291
0.103471
0.115845
0.137095
0.15981
0.17863
0.191646
0.200932
0.207064
0.210357
0.211326
0.210516
0.208777
0.207111
0.206812
0.208526
0.213039
0.218667
0.223907
0.227256
0.228189
0.226329
0.221525
0.213791
0.20327
0.190294
0.175062
0.157985
0.139247
0.120253
0.100438
0.0945301
0.101275
0.119195
0.141441
0.161425
0.17617
0.187315
0.194986
0.200139
0.20289
0.203764
0.203682
0.203646
0.204929
0.208244
0.21424
0.220996
0.226934
0.23053
0.231481
0.229537
0.224678
0.217089
0.206953
0.194483
0.179932
0.163659
0.146064
0.127796
0.108402
0.0904691
0.0907529
0.103941
0.124153
0.144511
0.160994
0.173849
0.18313
0.189578
0.193676
0.196018
0.197434
0.1989
0.201653
0.206444
0.213756
0.221488
0.228053
0.231972
0.23302
0.231152
0.226482
0.219161
0.209438
0.197551
0.18372
0.168324
0.151971
0.134325
0.115372
0.0931737
0.0858415
0.0923098
0.108597
0.128147
0.146055
0.160587
0.171317
0.179007
0.184248
0.187724
0.1904
0.193176
0.197234
0.203327
0.211759
0.220305
0.227423
0.231755
0.232956
0.231126
0.226657
0.219844
0.210813
0.199638
0.186623
0.172411
0.156891
0.139846
0.121338
0.102191
0.0890053
0.0873332
0.0973737
0.11375
0.131705
0.147535
0.159552
0.168384
0.174764
0.179329
0.182935
0.186771
0.191914
0.19909
0.208419
0.217615
0.225219
0.22997
0.231471
0.229945
0.225835
0.219472
0.211173
0.200892
0.188965
0.175857
0.16098
0.144428
0.126315
0.117902
0.100677
0.090802
0.0922995
0.103397
0.118936
0.134932
0.14796
0.157855
0.165284
0.170891
0.175389
0.179973
0.185933
0.193938
0.203926
0.213607
0.221625
0.226817
0.228748
0.227672
0.224169
0.218441
0.210892
0.201601
0.190925
0.178586
0.164301
0.148139
0.130353
0.140245
0.120824
0.104787
0.0963869
0.0990592
0.109598
0.1236
0.136892
0.147607
0.155958
0.162507
0.167877
0.173086
0.179548
0.188099
0.198501
0.208506
0.21687
0.222507
0.224986
0.224511
0.221739
0.216933
0.210325
0.202227
0.192515
0.180779
0.166961
0.151072
0.133524
0.168888
0.148393
0.12873
0.112075
0.103873
0.106124
0.115291
0.12714
0.138008
0.146999
0.154331
0.160476
0.166317
0.173044
0.181851
0.192425
0.202598
0.211229
0.217319
0.220443
0.22073
0.218861
0.215202
0.209853
0.202837
0.193808
0.18257
0.169083
0.153339
0.135919
0.203381
0.182206
0.160521
0.138438
0.120284
0.11145
0.112535
0.120196
0.129787
0.13878
0.146593
0.153353
0.159743
0.166824
0.17557
0.186081
0.196276
0.205098
0.21166
0.215517
0.216753
0.216059
0.213733
0.209564
0.2034
0.19498
0.18412
0.170813
0.155065
0.137647
0.242919
0.221162
0.198057
0.17268
0.147283
0.127501
0.118001
0.118008
0.124139
0.13195
0.13967
0.14676
0.153575
0.160998
0.169833
0.180064
0.190162
0.199128
0.206209
0.21096
0.213373
0.21385
0.212748
0.209568
0.204186
0.196277
0.185643
0.172338
0.156405
0.138841
0.286467
0.264166
0.23979
0.212084
0.181926
0.153425
0.132822
0.122993
0.12261
0.127518
0.134182
0.141115
0.148177
0.15589
0.164883
0.175102
0.18526
0.194433
0.20196
0.20746
0.210903
0.212487
0.212465
0.210395
0.205715
0.198088
0.18745
0.173906
0.157561
0.139656
0.332965
0.310164
0.284562
0.254888
0.221388
0.186727
0.156616
0.136388
0.127291
0.126802
0.131079
0.137189
0.144182
0.152116
0.161373
0.171759
0.182099
0.191563
0.199513
0.205629
0.209915
0.212514
0.21349
0.212475
0.208532
0.201105
0.190065
0.175916
0.158839
0.140294
0.381575
0.358374
0.331669
0.300255
0.264211
0.225294
0.188039
0.158324
0.13969
0.132132
0.132098
0.136425
0.142957
0.151055
0.160739
0.171549
0.182342
0.192113
0.200373
0.206939
0.211859
0.215217
0.216953
0.216698
0.213386
0.206141
0.194557
0.179164
0.160804
0.141141
0.432128
0.408727
0.381271
0.348636
0.310882
0.269223
0.22709
0.189804
0.162214
0.146688
0.14114
0.142302
0.147834
0.15615
0.166621
0.178249
0.189586
0.199702
0.208204
0.214984
0.220137
0.223658
0.225465
0.225355
0.222159
0.21486
0.202474
0.185487
0.164701
0.142997
0.48615
0.463262
0.435982
0.403305
0.365306
0.322854
0.278368
0.23617
0.20161
0.178675
0.167194
0.164622
0.168782
0.177548
0.189761
0.202896
0.214771
0.22504
0.23323
0.239248
0.24329
0.245493
0.245963
0.244458
0.239996
0.231438
0.217573
0.197894
0.173756
0.148061
0.550396
0.52966
0.504668
0.474541
0.439336
0.399589
0.356879
0.314414
0.277409
0.250621
0.235471
0.230801
0.235172
0.246344
0.26215
0.277868
0.290103
0.299094
0.30461
0.306763
0.306128
0.303147
0.29826
0.291463
0.282013
0.268781
0.250302
0.225607
0.194437
0.161566
0.64475
0.629482
0.610882
0.58813
0.561364
0.530861
0.497271
0.463078
0.432489
0.41031
0.398764
0.398159
0.408146
0.426039
0.447998
0.467006
0.478645
0.48389
0.482779
0.475687
0.463853
0.448702
0.431173
0.411557
0.38947
0.36405
0.333668
0.296543
0.251465
0.201861
0.815946
0.809443
0.801333
0.790745
0.778585
0.764684
0.748417
0.730776
0.714473
0.704251
0.702624
0.711671
0.729886
0.754547
0.780069
0.799789
0.809833
0.811429
0.803415
0.787162
0.763995
0.735968
0.704344
0.669265
0.630352
0.587247
0.538353
0.480648
0.411841
0.334191
1.05494
1.05456
1.06233
1.07111
1.08058
1.0865
1.08554
1.08035
1.07192
1.06791
1.07112
1.082
1.0973
1.11539
1.13001
1.13919
1.14233
1.13955
1.1297
1.11407
1.0936
1.06965
1.04282
1.01236
0.976708
0.935249
0.886038
0.825419
0.750812
0.663639
1.14962
1.15444
1.17643
1.19904
1.21372
1.21843
1.21465
1.20664
1.19823
1.19465
1.19689
1.20123
1.20359
1.20471
1.19836
1.18929
1.18181
1.17348
1.1647
1.15609
1.14858
1.14237
1.13737
1.13292
1.12681
1.11846
1.10582
1.08758
1.06355
1.03189
0.139293
0.160372
0.166473
0.168698
0.16754
0.16373
0.158061
0.151182
0.143512
0.135429
0.127129
0.118905
0.110832
0.103314
0.0965319
0.0910273
0.0872343
0.0864701
0.0891586
0.0932815
0.0954311
0.0935324
0.0869069
0.0758557
0.0613899
0.0448905
0.0285214
0.0224969
0.0212268
0.0211138
0.220756
0.251773
0.259879
0.257808
0.249966
0.23898
0.226486
0.213363
0.200086
0.186986
0.174158
0.16184
0.149986
0.139103
0.129418
0.121662
0.116582
0.116769
0.122658
0.131478
0.138332
0.139974
0.134464
0.121638
0.102841
0.0800972
0.0565863
0.0379431
0.0336473
0.0296791
0.264755
0.299719
0.312473
0.313116
0.306504
0.295633
0.282396
0.267899
0.252763
0.237466
0.222246
0.207481
0.193251
0.18026
0.168944
0.160182
0.154798
0.15547
0.162177
0.171891
0.179474
0.181549
0.175689
0.161374
0.139849
0.112899
0.0839175
0.0566291
0.0430633
0.0392186
0.288548
0.322858
0.337816
0.341845
0.337946
0.329125
0.317156
0.303277
0.288206
0.272529
0.256645
0.241061
0.22602
0.212397
0.200845
0.192301
0.187506
0.188731
0.195448
0.20471
0.211698
0.213323
0.207041
0.192145
0.169518
0.140716
0.108843
0.0764554
0.0541778
0.0440892
0.296807
0.326268
0.344441
0.352568
0.352291
0.346563
0.336941
0.3248
0.310903
0.295954
0.280513
0.265192
0.250408
0.237201
0.226387
0.218899
0.215265
0.217097
0.223448
0.231583
0.237347
0.238063
0.231278
0.2162
0.193441
0.164253
0.131282
0.0963609
0.0681988
0.0519757
0.294306
0.318744
0.338162
0.349752
0.35384
0.351824
0.345221
0.335643
0.323675
0.310232
0.296053
0.281795
0.26808
0.256095
0.246751
0.240936
0.238833
0.241273
0.247045
0.253752
0.257971
0.257501
0.250116
0.235055
0.212703
0.18402
0.151156
0.115456
0.0838744
0.0626331
0.285524
0.304252
0.32311
0.337294
0.345419
0.347693
0.345177
0.338084
0.328382
0.317013
0.304786
0.292206
0.280204
0.270097
0.262796
0.25914
0.258794
0.261822
0.266912
0.272062
0.274624
0.27279
0.264729
0.249766
0.228125
0.200492
0.168529
0.133281
0.100104
0.0750864
0.269865
0.282601
0.300749
0.317291
0.329313
0.335734
0.337014
0.333572
0.327024
0.318126
0.307881
0.297405
0.287645
0.279951
0.275147
0.274044
0.275523
0.279125
0.2835
0.287095
0.288006
0.284746
0.275971
0.261136
0.240377
0.214122
0.183659
0.149443
0.116066
0.0883557
0.246283
0.255094
0.273009
0.291768
0.307446
0.317873
0.322923
0.323246
0.319922
0.313944
0.306366
0.298385
0.291123
0.286246
0.284295
0.286002
0.289315
0.293453
0.297133
0.299278
0.298596
0.293966
0.284504
0.269833
0.250048
0.225329
0.196308
0.163634
0.130945
0.10161
0.218291
0.224371
0.242145
0.262858
0.281803
0.295856
0.304531
0.308374
0.30845
0.305594
0.300969
0.295796
0.291381
0.289471
0.290648
0.295269
0.30038
0.30501
0.308052
0.308918
0.306756
0.300909
0.290862
0.276444
0.257542
0.234136
0.206786
0.176011
0.144459
0.114335
0.193143
0.19541
0.211813
0.233499
0.254608
0.271521
0.283329
0.290412
0.293638
0.293952
0.292389
0.290208
0.288868
0.290075
0.294508
0.302005
0.308889
0.313955
0.316453
0.316231
0.312788
0.30594
0.295494
0.281348
0.263147
0.241045
0.215452
0.186887
0.156483
0.126382
0.17232
0.169422
0.183216
0.204768
0.227286
0.246463
0.260903
0.270666
0.276697
0.279898
0.281337
0.282217
0.284016
0.288412
0.296105
0.306362
0.314936
0.320421
0.322513
0.321381
0.316935
0.309371
0.298802
0.284811
0.26733
0.246528
0.222923
0.196102
0.16687
0.137164
0.156646
0.147734
0.157617
0.177656
0.200646
0.2215
0.238119
0.25027
0.258731
0.264384
0.268551
0.272343
0.277198
0.284798
0.295648
0.308468
0.318587
0.324552
0.32636
0.324535
0.319411
0.311578
0.300857
0.287173
0.270498
0.251197
0.229304
0.20376
0.175627
0.146517
0.147608
0.132568
0.136818
0.153455
0.175558
0.197293
0.215646
0.229816
0.240415
0.248309
0.254739
0.261136
0.268822
0.279521
0.293321
0.308515
0.319966
0.326432
0.328125
0.325864
0.32036
0.312329
0.301864
0.288736
0.273084
0.255314
0.234454
0.209997
0.182824
0.154388
0.148002
0.127334
0.123567
0.134325
0.153442
0.174725
0.194097
0.209877
0.222302
0.232155
0.240633
0.249143
0.259298
0.27285
0.289297
0.306531
0.319212
0.326329
0.328
0.325491
0.319858
0.312014
0.302105
0.289827
0.275632
0.258819
0.238642
0.214987
0.188578
0.160801
0.156495
0.133247
0.121364
0.123468
0.136664
0.155274
0.174348
0.191061
0.204903
0.216396
0.226646
0.236929
0.249052
0.265069
0.283774
0.302743
0.316516
0.324258
0.326217
0.323875
0.318595
0.311265
0.302057
0.29119
0.278084
0.26177
0.242029
0.218896
0.193033
0.165839
0.174563
0.149968
0.132155
0.12424
0.128652
0.141349
0.157871
0.174245
0.188807
0.201498
0.213188
0.224989
0.238566
0.25652
0.277022
0.297408
0.312172
0.320628
0.323139
0.321297
0.316833
0.310469
0.302559
0.292883
0.280302
0.264316
0.24477
0.221884
0.196342
0.169618
0.203722
0.178055
0.156191
0.139843
0.132713
0.136177
0.146964
0.160801
0.174837
0.188016
0.200698
0.213666
0.228573
0.247679
0.269465
0.290952
0.306649
0.315924
0.319293
0.31838
0.315256
0.310283
0.303691
0.294665
0.282467
0.266606
0.247009
0.22411
0.198669
0.172277
0.242745
0.216087
0.19138
0.168761
0.151272
0.142806
0.144146
0.152717
0.164183
0.176713
0.189737
0.203463
0.219499
0.239259
0.261816
0.284081
0.300728
0.310983
0.315545
0.316223
0.314683
0.311097
0.3055
0.296903
0.284834
0.26884
0.248936
0.225765
0.200189
0.173972
0.289871
0.262015
0.23487
0.207697
0.182217
0.162452
0.15222
0.151607
0.15844
0.168674
0.181107
0.195159
0.212005
0.232362
0.25534
0.278012
0.295763
0.307323
0.313509
0.31563
0.315418
0.313108
0.308387
0.300232
0.287839
0.27134
0.250817
0.227086
0.201124
0.174891
0.343204
0.313833
0.284239
0.253387
0.222071
0.193261
0.171703
0.160511
0.159188
0.165405
0.17617
0.189847
0.207182
0.228161
0.251766
0.275103
0.293945
0.306881
0.314265
0.317658
0.318597
0.317245
0.313122
0.305181
0.292313
0.274694
0.25308
0.228407
0.201758
0.175263
0.401132
0.370053
0.337989
0.30392
0.26819
0.232767
0.201896
0.180189
0.169684
0.169153
0.176309
0.188958
0.206536
0.228352
0.253477
0.277954
0.297961
0.311926
0.320396
0.324852
0.326468
0.325477
0.321346
0.313173
0.299605
0.280346
0.256736
0.230407
0.202544
0.175402
0.462882
0.430221
0.395985
0.35928
0.320297
0.280347
0.242795
0.212322
0.192656
0.184693
0.186867
0.197514
0.215344
0.238471
0.265659
0.291939
0.313136
0.327869
0.33715
0.341994
0.343415
0.341653
0.336379
0.326907
0.312052
0.290858
0.26435
0.234804
0.204569
0.175976
0.529455
0.495935
0.460504
0.422388
0.381722
0.339446
0.298131
0.261832
0.234911
0.220102
0.217081
0.225305
0.243401
0.269011
0.299918
0.328896
0.350995
0.366213
0.375301
0.379077
0.378488
0.373808
0.365252
0.352469
0.334497
0.310415
0.280113
0.246202
0.211036
0.178829
0.605619
0.573089
0.538616
0.501484
0.461782
0.420262
0.378957
0.341203
0.311295
0.292865
0.286919
0.294405
0.314439
0.344093
0.380877
0.412999
0.435517
0.449799
0.456433
0.456331
0.450061
0.438707
0.423053
0.403329
0.378866
0.34882
0.312752
0.271597
0.229111
0.189868
0.704342
0.67628
0.646405
0.614158
0.579558
0.543362
0.507411
0.474514
0.448454
0.43284
0.429466
0.440985
0.466288
0.502265
0.545173
0.579514
0.600757
0.611566
0.612652
0.604425
0.588183
0.565572
0.538071
0.50654
0.470719
0.429891
0.383208
0.330729
0.274314
0.221087
0.853109
0.833816
0.812657
0.789842
0.765138
0.739562
0.714743
0.692915
0.677009
0.669955
0.674628
0.693814
0.725902
0.767388
0.812562
0.844833
0.861742
0.866899
0.860399
0.843156
0.816812
0.783315
0.74407
0.699976
0.650994
0.596494
0.535437
0.466328
0.389605
0.311624
1.07857
1.0709
1.06319
1.0533
1.04145
1.02864
1.01601
1.005
0.998171
0.998166
1.00904
1.03201
1.06512
1.10299
1.13806
1.15641
1.16267
1.15942
1.14715
1.12701
1.10052
1.06901
1.03264
0.990612
0.941527
0.883994
0.816817
0.737359
0.644169
0.542357
1.31734
1.31576
1.325
1.33515
1.34061
1.33892
1.33144
1.32177
1.31398
1.31189
1.31896
1.33388
1.35314
1.36795
1.37216
1.35855
1.34475
1.32868
1.31314
1.29753
1.28363
1.27187
1.26133
1.24888
1.23093
1.20453
1.16346
1.1069
1.03304
0.944524
1.34655
1.35815
1.38117
1.40336
1.41694
1.41989
1.41277
1.40068
1.38949
1.38341
1.38324
1.38492
1.38419
1.37646
1.35565
1.3211
1.29454
1.2707
1.25345
1.24209
1.23801
1.24081
1.24954
1.261
1.27155
1.27834
1.27783
1.2701
1.25298
1.22779
0.172782
0.197014
0.202493
0.203167
0.20103
0.196228
0.189402
0.181213
0.17211
0.162506
0.152576
0.142665
0.132795
0.123503
0.115022
0.108243
0.104307
0.106953
0.116997
0.12841
0.13422
0.13216
0.122547
0.106669
0.0858123
0.0615584
0.0371719
0.0223845
0.0211873
0.0214186
0.277382
0.313184
0.320082
0.317465
0.308416
0.295683
0.281166
0.265827
0.250122
0.234363
0.218559
0.202965
0.187444
0.172817
0.159494
0.148956
0.143676
0.150408
0.169211
0.191074
0.205528
0.208482
0.199119
0.178743
0.149351
0.113397
0.0761817
0.0434691
0.0319799
0.0304286
0.337194
0.376033
0.388851
0.389531
0.381974
0.369429
0.35404
0.336937
0.318759
0.299995
0.280853
0.261712
0.242663
0.224825
0.208995
0.196864
0.191386
0.199499
0.220353
0.244272
0.260439
0.264546
0.255092
0.232901
0.199861
0.158006
0.112473
0.0680892
0.044511
0.0391827
0.374559
0.409554
0.426221
0.430465
0.425868
0.415508
0.401328
0.384538
0.365952
0.346214
0.325747
0.30504
0.284475
0.265384
0.24895
0.236865
0.232113
0.24084
0.261326
0.284319
0.299813
0.303807
0.294393
0.272049
0.238175
0.194292
0.144862
0.0936784
0.0587495
0.0454537
0.394845
0.424577
0.442801
0.450473
0.449757
0.4427
0.43089
0.415593
0.397828
0.378414
0.35794
0.337026
0.31632
0.297361
0.281613
0.270674
0.267261
0.276276
0.295257
0.315835
0.329394
0.332449
0.322903
0.300982
0.267654
0.223996
0.173575
0.119279
0.0761599
0.0545759
0.400618
0.42215
0.441178
0.453827
0.458127
0.455106
0.446552
0.433609
0.417621
0.399575
0.380123
0.360076
0.340337
0.32263
0.308586
0.299637
0.297987
0.307077
0.323969
0.341378
0.352256
0.353766
0.343815
0.322468
0.290388
0.248279
0.19883
0.144034
0.0959089
0.0667664
0.395984
0.411921
0.430198
0.445289
0.453892
0.455664
0.450649
0.440665
0.427283
0.411521
0.39395
0.375716
0.357876
0.342403
0.330919
0.324667
0.325038
0.334049
0.348511
0.362392
0.370207
0.369753
0.35914
0.338351
0.30785
0.268092
0.220442
0.166529
0.116291
0.0811962
0.383334
0.392501
0.409396
0.426587
0.439239
0.445378
0.445128
0.439299
0.42899
0.415601
0.400558
0.384993
0.369911
0.357532
0.349357
0.346391
0.348841
0.357618
0.3695
0.379749
0.384411
0.381721
0.370282
0.349989
0.32126
0.283715
0.238323
0.186533
0.136162
0.0968038
0.361633
0.364784
0.380494
0.399584
0.416047
0.426604
0.430954
0.429359
0.422942
0.413129
0.401621
0.388852
0.377221
0.368702
0.364477
0.365211
0.369684
0.378042
0.38731
0.39403
0.395603
0.390633
0.378306
0.358497
0.330891
0.295554
0.253017
0.204297
0.154842
0.112743
0.332654
0.330598
0.345389
0.366229
0.386294
0.401081
0.409958
0.41271
0.410569
0.404801
0.397223
0.38853
0.380584
0.37649
0.376762
0.381406
0.387732
0.39548
0.402192
0.405658
0.40428
0.397197
0.384031
0.36431
0.337766
0.304639
0.26536
0.219747
0.171705
0.128376
0.302028
0.294966
0.308148
0.329796
0.352331
0.370794
0.383916
0.390905
0.393067
0.391646
0.38839
0.384016
0.380687
0.38138
0.38662
0.395142
0.403077
0.410037
0.414348
0.414914
0.410849
0.401955
0.388091
0.368345
0.342854
0.31213
0.275566
0.23242
0.186187
0.142777
0.273242
0.260232
0.270895
0.292342
0.316535
0.337954
0.354704
0.365626
0.371844
0.37472
0.375944
0.376193
0.377914
0.383913
0.394221
0.406478
0.415777
0.421819
0.423993
0.421975
0.41568
0.405475
0.390954
0.371372
0.347132
0.318285
0.283442
0.242496
0.198271
0.155545
0.247918
0.228509
0.235653
0.255703
0.280543
0.30413
0.323796
0.338306
0.348351
0.355229
0.360783
0.365721
0.37277
0.384393
0.399782
0.415482
0.425849
0.430943
0.431277
0.427101
0.419134
0.408137
0.393268
0.374078
0.351167
0.323065
0.289293
0.250212
0.207949
0.166408
0.226867
0.202208
0.204737
0.221848
0.245958
0.27069
0.292563
0.310141
0.323663
0.33431
0.343761
0.353299
0.365792
0.383215
0.403484
0.422216
0.433352
0.437587
0.436386
0.430599
0.421702
0.41028
0.395564
0.377493
0.354893
0.326681
0.293493
0.255851
0.215379
0.17528
0.213878
0.184934
0.181164
0.193371
0.214808
0.239206
0.262325
0.282217
0.298742
0.312801
0.325863
0.339628
0.35753
0.380636
0.405475
0.426765
0.438426
0.441979
0.439627
0.432973
0.423836
0.412591
0.398864
0.381256
0.358003
0.329384
0.296363
0.259707
0.220781
0.182213
0.212571
0.181766
0.168993
0.173745
0.18986
0.211751
0.234649
0.255805
0.274611
0.291563
0.307941
0.325405
0.348538
0.376954
0.405931
0.42929
0.441337
0.444475
0.441553
0.43481
0.426141
0.416109
0.402959
0.384708
0.360606
0.33133
0.298153
0.26209
0.224403
0.187336
0.221408
0.190264
0.171505
0.166725
0.174612
0.191092
0.211486
0.232405
0.252428
0.271547
0.290794
0.311758
0.339341
0.372506
0.405116
0.430115
0.44257
0.445671
0.442974
0.436938
0.429701
0.420338
0.40693
0.387817
0.362732
0.332649
0.29907
0.263267
0.226504
0.190831
0.241848
0.211198
0.18823
0.17479
0.172101
0.180512
0.195304
0.213776
0.233538
0.25376
0.275223
0.299445
0.330669
0.367778
0.403523
0.429988
0.442994
0.446634
0.445132
0.440908
0.434241
0.425194
0.410944
0.390719
0.364512
0.333496
0.299307
0.26343
0.227348
0.192905
0.276524
0.245096