/*--------------------------------*- C++ -*----------------------------------*\
| =========                 |                                                 |
| \\      /  F ield         | OpenFOAM: The Open Source CFD Toolbox           |
|  \\    /   O peration     | Version:  5.0                                   |
|   \\  /    A nd           | Web:      www.OpenFOAM.org                      |
|    \\/     M anipulation  |                                                 |
\*---------------------------------------------------------------------------*/
FoamFile
{
    version     2.0;
    format      ascii;
    class       volScalarField;
    location    "1550/air";
    object      nut;
}
// * * * * * * * * * * * * * * * * * * * * * * * * * * * * * * * * * * * * * //

dimensions      [0 2 -1 0 0 0 0];

internalField   nonuniform List<scalar> 
243000
(
0.000140915
0.000143866
0.000141261
0.000137003
0.000131689
0.000125825
0.000119726
0.000113636
0.000107718
0.000102128
9.69302e-05
9.21615e-05
8.77985e-05
8.38962e-05
8.04772e-05
7.767e-05
7.55975e-05
7.44858e-05
7.43866e-05
7.51177e-05
7.62105e-05
7.71039e-05
7.72967e-05
7.64522e-05
7.4543e-05
0.00032632
0.0003242
0.000313453
0.000281398
0.000293088
0.000611355
0.000648166
0.000656703
0.000655978
0.00064934
0.000638587
0.000625013
0.000609556
0.000592841
0.000575396
0.000557461
0.000539319
0.000521076
0.000503341
0.000486582
0.000471682
0.000459441
0.000451388
0.000447631
0.000447094
0.00044714
0.000444942
0.000437988
0.000424938
0.000405972
0.000384175
0.000353515
0.000323208
0.000291109
0.000277001
0.000657633
0.000694189
0.000705342
0.000705652
0.000699316
0.000688476
0.000674536
0.00065849
0.000641006
0.000622702
0.000603845
0.000584812
0.000565802
0.000547547
0.000530601
0.000515956
0.000504431
0.00049747
0.000494816
0.00049508
0.000495576
0.000493639
0.000486808
0.000473676
0.000454232
0.000428965
0.000398563
0.000362144
0.000325304
0.000297454
0.000675881
0.000714261
0.000728592
0.000731752
0.000727563
0.000718423
0.000705729
0.000690519
0.00067353
0.000655466
0.000636685
0.000617683
0.000598744
0.000580723
0.000564275
0.000550498
0.000540206
0.000534634
0.000533059
0.000533791
0.000534246
0.000532043
0.000524978
0.000511711
0.000492089
0.000466346
0.000435263
0.000397257
0.000357802
0.000324374
0.000675977
0.000714641
0.000734574
0.000742245
0.000741307
0.000734858
0.000724299
0.000710737
0.000695008
0.00067788
0.000659827
0.000641451
0.00062314
0.000605865
0.000590363
0.000577829
0.000569039
0.000564931
0.000564335
0.00056533
0.000565532
0.000562854
0.000555412
0.000542014
0.00052244
0.000496824
0.000465852
0.000427982
0.00038716
0.000350901
0.000664855
0.00070444
0.000729121
0.000741395
0.000744632
0.000741484
0.000733618
0.000722211
0.000708231
0.000692507
0.000675617
0.000658274
0.000640973
0.000624797
0.000610529
0.000599475
0.000592318
0.000589659
0.000589919
0.000591069
0.000590946
0.000587729
0.000579865
0.000566349
0.000546948
0.000521767
0.000491362
0.000454391
0.000413146
0.000375386
0.000644061
0.000686439
0.000715655
0.000732647
0.000740212
0.000740875
0.000735974
0.000726884
0.000715004
0.000701042
0.000685644
0.000669624
0.000653594
0.000638766
0.000625921
0.000616493
0.000611015
0.000609738
0.000610753
0.00061201
0.000611555
0.000607815
0.000599542
0.000585922
0.000566764
0.000542161
0.000512553
0.000476809
0.000435967
0.000397401
0.000615512
0.000662026
0.000695914
0.000717711
0.000729796
0.000734325
0.000732784
0.000726641
0.000716927
0.000704683
0.000691021
0.000676551
0.000661987
0.000648657
0.000637378
0.000629657
0.000625841
0.000625859
0.000627544
0.000628898
0.000628147
0.00062395
0.000615314
0.000601619
0.000582733
0.000558765
0.000530066
0.00049578
0.000455869
0.000417066
0.000583142
0.000633314
0.000671696
0.000698126
0.00071471
0.000723168
0.000725091
0.000721916
0.000714743
0.000704808
0.000692784
0.000679857
0.000666895
0.000655166
0.000645531
0.000639543
0.000637346
0.00063854
0.000640839
0.0006423
0.000641319
0.000636754
0.000627831
0.000614107
0.000595517
0.000572203
0.000544534
0.000511469
0.00047277
0.00043444
0.000551347
0.000604054
0.000645786
0.000675558
0.000696196
0.000708467
0.000713844
0.000713776
0.000709271
0.000701586
0.000691573
0.000680415
0.000668939
0.000658851
0.000650881
0.0006466
0.000645943
0.000648205
0.000651063
0.000652658
0.000651528
0.000646703
0.000637588
0.000623895
0.000605637
0.000583063
0.000556198
0.000524216
0.000487055
0.000449645
0.000522453
0.000573997
0.000618955
0.000652446
0.000676122
0.000691318
0.000699949
0.000702911
0.000701156
0.000695818
0.000687838
0.000678443
0.0006687
0.000660168
0.000653827
0.00065119
0.000651957
0.00065519
0.000658567
0.000660326
0.000659141
0.000654169
0.000644974
0.000631393
0.000613567
0.000591561
0.000565405
0.000534419
0.000499057
0.000462775
0.000501068
0.000543985
0.000590788
0.00062816
0.00065537
0.000673476
0.000684428
0.000690041
0.000690938
0.000687968
0.000682063
0.000674488
0.000666391
0.000659455
0.00065469
0.000653597
0.000655655
0.000659774
0.000663637
0.000665598
0.00066445
0.000659456
0.0006503
0.000636965
0.000619502
0.000598024
0.000572493
0.000542383
0.000508992
0.000474025
0.000493167
0.000517138
0.000561615
0.000602302
0.000633426
0.000654919
0.000668571
0.000676227
0.000679202
0.000678472
0.000674616
0.000668873
0.000662417
0.000657012
0.000653738
0.000654057
0.000657264
0.000662182
0.000666523
0.000668719
0.000667698
0.000662806
0.000653866
0.000640786
0.000623693
0.000602708
0.000577741
0.000548499
0.00051711
0.00048354
0.000503834
0.000500388
0.000533647
0.000575008
0.000609914
0.000635239
0.000652039
0.000662097
0.000666925
0.000667833
0.000665865
0.000661893
0.000657041
0.000653098
0.000651205
0.000652784
0.000656992
0.000662618
0.000667427
0.00066991
0.000669067
0.000664428
0.00065574
0.000642997
0.000626327
0.000605823
0.00058141
0.000553725
0.000523908
0.000491596
0.000532115
0.00050349
0.000513392
0.000548078
0.00058496
0.000614147
0.000634524
0.000647386
0.000654362
0.000656895
0.000656244
0.000653849
0.0006505
0.000647929
0.000647299
0.000649971
0.000655032
0.000661262
0.000666522
0.000669351
0.000668735
0.000664295
0.00065593
0.00064364
0.000627508
0.000607542
0.000583851
0.000557912
0.000529542
0.000498367
0.000572131
0.000531627
0.000511095
0.000527019
0.000560082
0.000591787
0.000615817
0.000631862
0.000641318
0.000645718
0.000646469
0.000645105
0.000643044
0.000641718
0.000642198
0.000645796
0.000651561
0.000658301
0.000663999
0.000667214
0.000666927
0.000662875
0.000654862
0.000642999
0.000627355
0.000608001
0.000585753
0.000561262
0.000534161
0.000503992
0.00061657
0.000575712
0.000535839
0.00052175
0.000539886
0.000569469
0.00059609
0.000615404
0.000627636
0.000634168
0.000636506
0.000636243
0.000634985
0.00063468
0.000636081
0.000640431
0.000646754
0.000653915
0.000660024
0.000663661
0.000663794
0.000660206
0.000652705
0.000641337
0.000626228
0.000607771
0.00058702
0.000563842
0.000537862
0.000508572
0.000658586
0.000623247
0.000579576
0.000541808
0.000532892
0.00055097
0.000576479
0.00059821
0.000613263
0.000622145
0.000626266
0.000627269
0.000626814
0.000627071
0.000629148
0.000634056
0.000640794
0.000648288
0.000654769
0.000658852
0.000659488
0.000656438
0.000649578
0.000638794
0.000624317
0.00060721
0.000587753
0.000565733
0.000540729
0.000512185
0.000699494
0.000668609
0.000628429
0.000582349
0.000547812
0.000542991
0.000559916
0.000581207
0.000598398
0.000609635
0.000615686
0.000618107
0.000618609
0.000619262
0.000621646
0.000626881
0.000633879
0.000641611
0.000648419
0.00065296
0.000654163
0.000651732
0.000645573
0.000635517
0.000622204
0.000606347
0.000588025
0.000567016
0.000542836
0.000514897
0.000739204
0.000710687
0.000675063
0.000630466
0.00058301
0.000552887
0.000551414
0.000566555
0.000583758
0.00059682
0.000604777
0.000608719
0.000610296
0.000611509
0.000613962
0.00061917
0.000626236
0.000634098
0.000641176
0.000646169
0.000647987
0.000646244
0.000640861
0.00063191
0.000619915
0.000605237
0.000587919
0.00056778
0.000544267
0.000516767
0.000777608
0.00075066
0.000718506
0.000677756
0.000628256
0.000581256
0.000556654
0.000557836
0.000570877
0.000584239
0.000593697
0.000599124
0.00060185
0.000603749
0.000606421
0.000611341
0.000618169
0.000626014
0.000633282
0.00063869
0.000641146
0.000640154
0.000635855
0.000628259
0.000617533
0.000603966
0.000587567
0.000568146
0.000545137
0.000517898
0.000814528
0.000788964
0.000759177
0.000721756
0.000674597
0.000621177
0.000577448
0.000559093
0.000562218
0.000572953
0.000582845
0.000589459
0.000593304
0.000595968
0.000598985
0.000603783
0.000610331
0.000617928
0.000625249
0.000631022
0.0006342
0.000634164
0.000630968
0.000624639
0.000615148
0.000602652
0.000587095
0.000568259
0.00054559
0.00051842
0.000849944
0.000826234
0.000797749
0.000762514
0.00071822
0.000664525
0.000610003
0.000572562
0.000560514
0.000564601
0.000572981
0.000580059
0.00058481
0.000588233
0.000591688
0.000596505
0.000602868
0.000610259
0.000617593
0.00062368
0.000627508
0.000628398
0.000626264
0.000621142
0.000612875
0.000601447
0.000586693
0.000568318
0.000545815
0.000518497
0.000884608
0.000861266
0.000833584
0.000799882
0.000758089
0.000706424
0.000648107
0.000596805
0.000567885
0.000561176
0.000565335
0.000571592
0.000576759
0.000580812
0.000584745
0.000589693
0.000595954
0.000603177
0.000610487
0.000616838
0.000621248
0.000623018
0.000621904
0.000617947
0.000610898
0.000600559
0.000586582
0.000568633
0.000546106
0.000518396
0.000915829
0.000893095
0.000866329
0.000834033
0.000794388
0.0007454
0.000687397
0.000628632
0.000584982
0.000564946
0.00056182
0.000565457
0.000570193
0.000574589
0.000578981
0.000584153
0.000590388
0.000597471
0.000604711
0.000611211
0.000616082
0.00061863
0.000618471
0.000615619
0.000609675
0.000600351
0.000587237
0.000569711
0.000547045
0.000518588
0.000945549
0.00092336
0.000897442
0.0008665
0.00082893
0.000782834
0.00072726
0.000666285
0.000612568
0.000579226
0.000566356
0.000565161
0.000568366
0.000572724
0.00057757
0.000583097
0.000589374
0.000596268
0.000603266
0.000609643
0.000614628
0.000617596
0.000618168
0.00061613
0.00061113
0.000602751
0.000590392
0.000573157
0.000549946
0.000520124
0.000976589
0.000955324
0.000930601
0.000901341
0.000866235
0.000823686
0.000772296
0.000713561
0.000655937
0.000612544
0.000589535
0.000582071
0.000582683
0.00058677
0.000592285
0.000598347
0.000604542
0.000610844
0.000616926
0.000622296
0.000626412
0.000628804
0.000629151
0.000627131
0.000622349
0.000614289
0.000602173
0.00058467
0.00056035
0.000527901
0.00101586
0.00099636
0.000973875
0.000947786
0.000917297
0.000881208
0.000838129
0.000788119
0.000735778
0.000691398
0.000663623
0.000652064
0.000650946
0.00065534
0.000661794
0.000668106
0.000673261
0.00067741
0.000680462
0.000682356
0.000682948
0.000682127
0.000679688
0.000675334
0.000668501
0.000658632
0.000644919
0.000625651
0.000598588
0.00056109
0.00108978
0.00107484
0.00105907
0.00104231
0.00102407
0.00100325
0.000978412
0.00094905
0.000916459
0.000887011
0.000867721
0.000859886
0.000860069
0.000865266
0.000871506
0.000876297
0.000878291
0.000878234
0.000876212
0.000872459
0.000867293
0.000860996
0.0008536
0.000844786
0.00083315
0.000818668
0.000801728
0.000779864
0.000750857
0.000712095
0.00132963
0.00132734
0.00132839
0.00132919
0.00132892
0.0013269
0.00132223
0.00131501
0.00130347
0.00129145
0.00128267
0.00127764
0.00127533
0.00127641
0.00127834
0.00128005
0.0012797
0.0012795
0.00127902
0.00127881
0.0012787
0.0012789
0.00127911
0.00127893
0.00127375
0.0012656
0.00125864
0.00124721
0.00123162
0.00121115
0.000170735
0.000177357
0.000175429
0.000170722
0.000164441
0.000157327
0.000149873
0.000142423
0.000135175
0.000128296
0.000121844
0.000115912
0.000110512
0.000105786
0.000101788
9.87366e-05
9.67861e-05
9.62751e-05
9.72667e-05
9.92458e-05
0.000101154
0.000101997
0.000101029
9.77402e-05
9.19536e-05
8.36044e-05
7.23657e-05
0.000311783
0.000305979
0.000318169
0.00064849
0.000731409
0.000707403
0.000658473
0.000604506
0.000553432
0.000507866
0.000467972
0.000433302
0.000403383
0.000377224
0.000354614
0.000334478
0.000317488
0.000303053
0.000291973
0.000283716
0.000280653
0.000281729
0.000286897
0.000294597
0.000302516
0.000305595
0.000299212
0.000284001
0.000260025
0.000233416
0.000253227
0.000332407
0.000314713
0.00101961
0.00117495
0.00118593
0.0011377
0.00106892
0.000995884
0.000926468
0.00086314
0.000806497
0.00075664
0.000712401
0.000673824
0.000639317
0.000610369
0.000586369
0.000568124
0.000554278
0.000547742
0.000544256
0.00054472
0.000548868
0.00055506
0.000554355
0.000541288
0.00051215
0.000467933
0.000415095
0.00036491
0.00037515
0.000408265
0.0012408
0.00145248
0.00150524
0.00147762
0.00141822
0.00134514
0.00126986
0.00119752
0.00113047
0.00106978
0.00101496
0.000966718
0.00092384
0.000888341
0.000860047
0.000839687
0.000824902
0.000816761
0.000808715
0.000802402
0.000799362
0.000798982
0.000791928
0.00076926
0.000727395
0.000666461
0.00059232
0.000506435
0.000455002
0.000450425
0.00134856
0.00157346
0.00167029
0.00168926
0.0016565
0.00159747
0.00152813
0.00145713
0.00138877
0.00132484
0.00126618
0.00121424
0.0011685
0.00113165
0.00110411
0.00108613
0.00107423
0.00106636
0.00105465
0.00104168
0.00103113
0.00102289
0.00100808
0.000977001
0.000925241
0.000852456
0.000763589
0.000656918
0.000565361
0.000517428
0.00140441
0.00163176
0.00175895
0.00180874
0.00180465
0.00176772
0.00171153
0.00164849
0.00158563
0.00152416
0.00146724
0.00141644
0.00137255
0.0013388
0.00131606
0.00130401
0.00129748
0.00129083
0.00127626
0.0012576
0.0012402
0.0012244
0.00120207
0.0011643
0.00110553
0.00102473
0.000926457
0.000808001
0.000692554
0.000609253
0.0014162
0.00163176
0.00177666
0.00185498
0.00188078
0.00186942
0.001834
0.00178432
0.00172878
0.0016734
0.00162335
0.0015776
0.00153918
0.00151236
0.00149756
0.00149422
0.00149448
0.00148947
0.00147275
0.00144955
0.00142636
0.00140346
0.00137494
0.00133202
0.00126872
0.00118341
0.0010796
0.000954707
0.000826556
0.000716925
0.00137334
0.00157327
0.00173458
0.00184141
0.00189816
0.00191337
0.00190027
0.00186882
0.0018275
0.00178428
0.00174042
0.0017023
0.00167216
0.00165539
0.00165098
0.00165865
0.00166612
0.00166322
0.00164504
0.00161843
0.00159068
0.00156287
0.00152955
0.00148196
0.00141587
0.00132865
0.00122277
0.00109548
0.000960859
0.000831773
0.00126697
0.00146256
0.00164153
0.00177861
0.00186681
0.00190935
0.00192017
0.0019103
0.00188638
0.00185675
0.00182447
0.00179604
0.00177536
0.00177075
0.00177867
0.00179883
0.00181361
0.00181363
0.00179499
0.00176567
0.00173493
0.00170352
0.00166655
0.00161705
0.00154851
0.00146123
0.00135635
0.00123024
0.00109353
0.000947038
0.00114574
0.00131389
0.00150598
0.00167655
0.00179461
0.00186632
0.00190335
0.00191635
0.00191247
0.00189864
0.00187982
0.00186317
0.00185459
0.00186173
0.0018828
0.00191601
0.00193872
0.0019404
0.00192149
0.00189212
0.00185999
0.0018254
0.00178611
0.00173565
0.00166864
0.00158307
0.00147927
0.00135414
0.00121782
0.00105792
0.00103518
0.00115673
0.00134026
0.0015314
0.00168618
0.00179154
0.00185663
0.00189364
0.00191047
0.00191412
0.00191009
0.00190656
0.00191063
0.00193084
0.00196554
0.00201143
0.00204255
0.00204796
0.00202983
0.00200011
0.00196767
0.00193112
0.00189028
0.00184011
0.00177632
0.00169213
0.00158949
0.00146741
0.00133167
0.00116378
0.000951029
0.00101475
0.00116907
0.00136324
0.0015432
0.00168307
0.00178419
0.00184593
0.00188471
0.00190645
0.00191787
0.00192875
0.00194684
0.00197987
0.00202861
0.00208655
0.00212585
0.00213639
0.00211991
0.00209135
0.00205952
0.00202252
0.00198117
0.00193257
0.00186967
0.00178863
0.001688
0.00157145
0.00143444
0.00126353
0.000900933
0.000905549
0.00101438
0.00119137
0.00138122
0.00154764
0.00168055
0.00177522
0.0018382
0.00187871
0.00190665
0.00193237
0.00196448
0.00201069
0.00207345
0.00214271
0.00219007
0.00220643
0.00219349
0.00216706
0.00213703
0.00210192
0.0020605
0.00201184
0.00195015
0.00187202
0.00177544
0.00166552
0.00152575
0.00135141
0.000907508
0.0008465
0.000895215
0.0010348
0.00121651
0.00139755
0.00155529
0.0016785
0.00176946
0.00183357
0.00187864
0.0019196
0.00196571
0.0020251
0.00210132
0.0021812
0.00223656
0.00225933
0.00225245
0.00222827
0.0021976
0.00216245
0.00212364
0.002078
0.00201879
0.00194413
0.00185523
0.00174572
0.00160398
0.00142648
0.000958651
0.000851532
0.000836434
0.000917569
0.00106868
0.00124685
0.0014186
0.00156363
0.00167918
0.00176828
0.00183603
0.00189232
0.00195235
0.00202457
0.00211336
0.00220316
0.00226661
0.00229648
0.0022965
0.00227646
0.00224827
0.0022139
0.0021748
0.00213102
0.00207664
0.0020084
0.00192574
0.00181382
0.00166916
0.00148837
0.00106653
0.000924802
0.000847474
0.000861297
0.000959533
0.001112
0.00128215
0.00143976
0.00157446
0.00168555
0.00177583
0.00185227
0.00192593
0.00201049
0.00211075
0.00220982
0.00228146
0.00231911
0.0023271
0.0023128
0.00228805
0.00225741
0.00221973
0.00217706
0.002127
0.00206655
0.00198398
0.00186991
0.00172167
0.00153733
0.00123275
0.00106831
0.00094247
0.00088168
0.000910717
0.00101317
0.0011604
0.00131753
0.00146329
0.00159136
0.00170131
0.00179784
0.00188789
0.00198415
0.00209477
0.00220251
0.0022824
0.00232852
0.00234514
0.00233826
0.0023182
0.00229205
0.00225976
0.00222072
0.00217549
0.00211742
0.00203249
0.00191514
0.0017625
0.0015741
0.00145526
0.00127722
0.00111783
0.00099481
0.000940155
0.000972289
0.00107212
0.00120983
0.00135495
0.0014926
0.00161756
0.00173128
0.00183806
0.00194689
0.00206691
0.00218269
0.00227081
0.00232588
0.00235189
0.00235385
0.00234024
0.00232031
0.00229597
0.0022636
0.00222145
0.00216055
0.00207266
0.00195099
0.001793
0.00159988
0.00172731
0.00154179
0.00136028
0.00119143
0.00106281
0.00100786
0.00103723
0.00113271
0.00126059
0.00139731
0.00153049
0.00165697
0.0017776
0.00190082
0.00202893
0.00215204
0.00224831
0.00231273
0.00234891
0.002361
0.00235636
0.00234526
0.00233043
0.00230379
0.00226066
0.0021974
0.00210609
0.00197918
0.00181478
0.00161613
0.00203668
0.00184753
0.00165114
0.00145072
0.00126517
0.00112919
0.00107392
0.00110152
0.0011932
0.00131482
0.00144691
0.00157984
0.00171019
0.00184499
0.00198272
0.00211219
0.00221639
0.00229075
0.00233776
0.00236196
0.0023691
0.00236717
0.00236127
0.0023359
0.00229412
0.00223056
0.00213484
0.0020017
0.00182976
0.00162454
0.00236502
0.00217471
0.00196845
0.00174669
0.00152149
0.00132117
0.00118388
0.00113245
0.00116418
0.00125534
0.00137418
0.00150494
0.0016397
0.00178095
0.00192429
0.00206093
0.00217407
0.00225875
0.00231698
0.00235315
0.00237185
0.00237916
0.00237952
0.00236316
0.0023256
0.0022593
0.0021589
0.00201948
0.00183955
0.00162694
0.00268805
0.00249847
0.00228677
0.00205186
0.00180119
0.00155607
0.00135219
0.00122378
0.00118511
0.00122466
0.0013177
0.00143659
0.00156701
0.00170686
0.00184906
0.00198654
0.00210352
0.00219673
0.00226571
0.00231394
0.00234611
0.00236626
0.00237531
0.00237021
0.00233956
0.00227442
0.00217126
0.00202981
0.00184401
0.00162447
0.0029748
0.00278844
0.00257638
0.00233628
0.00207258
0.0018006
0.00155016
0.00135751
0.00124893
0.00122948
0.00127722
0.00137158
0.00148622
0.00161316
0.00174217
0.00187023
0.00198718
0.00208478
0.00216197
0.00222158
0.00226739
0.00230251
0.00232643
0.00233808
0.00232342
0.00226919
0.00216897
0.00202395
0.00183897
0.00161643
0.00318767
0.00300851
0.00280275
0.00256656
0.00230188
0.00201902
0.00174135
0.0015021
0.00133306
0.00125158
0.00124587
0.00129423
0.00137534
0.00147357
0.00157504
0.00168122
0.00178606
0.00187979
0.00196299
0.00203562
0.00209908
0.00215389
0.00219919
0.00223487
0.00224548
0.00221764
0.00213514
0.00200028
0.00181366
0.00159647
0.00328469
0.00312016
0.0029297
0.00270779
0.00245408
0.00217482
0.00188747
0.00162036
0.00140574
0.00126662
0.00120139
0.00119244
0.00122267
0.00127657
0.00134523
0.00142367
0.00150578
0.00158932
0.00167135
0.0017506
0.00182726
0.00190059
0.00196972
0.00203075
0.00207199
0.00207966
0.00203678
0.00192818
0.00176705
0.00155973
0.00323717
0.00309874
0.0029349
0.0027389
0.00250861
0.00224815
0.00197156
0.00170275
0.0014711
0.00129936
0.00119176
0.00113849
0.00112812
0.00114985
0.00119487
0.00125133
0.00131003
0.00137176
0.00143552
0.00150115
0.00156901
0.00163776
0.00170693
0.00177343
0.00182879
0.00186062
0.00185247
0.00178802
0.00165458
0.00148367
0.00306581
0.00296772
0.00284512
0.00269086
0.00250225
0.00228395
0.00204945
0.00181956
0.00161756
0.00146127
0.00135413
0.00129258
0.00127403
0.00128698
0.00132189
0.00136378
0.00140182
0.00143898
0.00147691
0.00151347
0.00155023
0.00158811
0.00162707
0.00166525
0.00169758
0.00171533
0.00170471
0.00165014
0.0015363
0.00136713
0.00290293
0.00285427
0.00278143
0.00267992
0.00254779
0.00239158
0.00222391
0.00205935
0.00191326
0.00179507
0.00170894
0.00166037
0.00164459
0.00165385
0.00167918
0.00170906
0.00173361
0.00175792
0.00177971
0.00179928
0.00181718
0.00183428
0.00185006
0.00186226
0.0018671
0.00185911
0.00182744
0.00175704
0.00163243
0.00144508
0.00280827
0.00278993
0.00276809
0.00272455
0.00265667
0.00256742
0.00246328
0.0023566
0.00225659
0.00217002
0.00210344
0.00206205
0.00204217
0.00204062
0.00205016
0.00206622
0.00208117
0.002099
0.00211673
0.0021355
0.00215499
0.00217481
0.00219362
0.00220865
0.00221629
0.00221382
0.00219291
0.00214153
0.00204976
0.00190943
0.00278037
0.00278145
0.00278216
0.00276511
0.0027307
0.00268473
0.00262775
0.00256426
0.00249994
0.0024427
0.00239545
0.00235922
0.0023345
0.00232231
0.00231828
0.00232417
0.00233331
0.00234781
0.00236657
0.00239022
0.00241748
0.00244676
0.00247606
0.00250332
0.00252554
0.0025442
0.00255194
0.00254198
0.00251635
0.00247108
0.00019707
0.000203559
0.000199829
0.000194048
0.000186813
0.000178717
0.000170278
0.000161871
0.000153706
0.000145962
0.000138698
0.000132018
0.000125916
0.000120574
0.00011606
0.00011269
0.000110758
0.000111158
0.000114236
0.000118708
0.000122413
0.000123965
0.000122601
0.000117833
0.000109307
9.65764e-05
7.96953e-05
0.000310278
7.27938e-05
7.67798e-05
0.000836379
0.000959479
0.000962643
0.000910468
0.000842341
0.000774921
0.000714278
0.000660939
0.000614214
0.000573355
0.000536669
0.000503955
0.000473167
0.000445908
0.000420787
0.000399787
0.000383104
0.000378909
0.000386386
0.000404556
0.000426748
0.000446354
0.000452717
0.000438334
0.000402621
0.000351692
0.000295457
0.000269506
0.000307475
0.000325629
0.00133158
0.00156243
0.0016193
0.00158463
0.00150901
0.00142006
0.00133154
0.00124887
0.0011733
0.00110504
0.00104236
0.000985523
0.00093172
0.000883993
0.000840985
0.000804614
0.000774911
0.000762087
0.000761478
0.000776041
0.000799225
0.000823382
0.000826942
0.000796829
0.000736089
0.000644106
0.000536663
0.00043542
0.000411002
0.000471766
0.00168339
0.00196388
0.0020558
0.00205396
0.0019945
0.00190978
0.0018168
0.0017246
0.00163663
0.00155461
0.00147791
0.00140774
0.00134185
0.00128391
0.0012334
0.00119144
0.00115646
0.00113588
0.00112424
0.00112929
0.00114377
0.00116425
0.00116191
0.00112311
0.00104178
0.000921293
0.000777338
0.000623904
0.000525907
0.000534235
0.00190608
0.00217979
0.00232016
0.00236014
0.00232761
0.00225939
0.00217474
0.00208573
0.00199672
0.00191107
0.00182992
0.00175543
0.00168604
0.00162663
0.00157728
0.00153701
0.00150126
0.00147302
0.0014493
0.00144053
0.00144712
0.0014605
0.00145407
0.00140838
0.0013161
0.00117914
0.00101165
0.000825129
0.000672922
0.000622003
0.00204431
0.00230378
0.00246667
0.00253913
0.00254145
0.0024967
0.00242712
0.00235042
0.00226811
0.00218619
0.00210802
0.00203598
0.00197046
0.0019167
0.0018749
0.00184145
0.0018068
0.00177011
0.00173428
0.00171357
0.00170967
0.0017166
0.00170649
0.00165838
0.00156156
0.00141727
0.00123738
0.00103076
0.00084269
0.000740989
0.00214015
0.00237269
0.00253486
0.0026278
0.00265967
0.00264632
0.00260549
0.00253786
0.00246455
0.00239158
0.00232305
0.00225868
0.00220304
0.00216123
0.00213189
0.00210831
0.00207534
0.00202927
0.00198191
0.00195036
0.00193735
0.00193735
0.00192392
0.00187692
0.00178063
0.0016361
0.00145257
0.00123786
0.00102611
0.000882512
0.00217907
0.00236835
0.00252788
0.00263968
0.00270066
0.00271731
0.00270247
0.00265937
0.00260634
0.00254593
0.00248468
0.00243151
0.00239035
0.00236585
0.00235269
0.00234162
0.00230893
0.00225384
0.00219622
0.00215555
0.00213527
0.00212776
0.00211128
0.00206618
0.00197753
0.0018373
0.00165827
0.00144041
0.00121666
0.00103605
0.00213299
0.00229294
0.0024539
0.00258567
0.00267666
0.00272469
0.00273744
0.00272222
0.00268963
0.00264735
0.00260203
0.00256396
0.00253867
0.00253501
0.002541
0.00254381
0.00251039
0.00244736
0.00238157
0.00233375
0.00230711
0.00229276
0.00227341
0.00223072
0.00215107
0.00202155
0.00184613
0.00163131
0.00140361
0.00119494
0.00202431
0.00215941
0.00232188
0.00247524
0.0025981
0.00267879
0.0027217
0.00273421
0.00272648
0.00270543
0.00267998
0.00266081
0.00265543
0.00267262
0.00269997
0.00271667
0.0026825
0.00261359
0.00254241
0.00248764
0.00245691
0.00243693
0.00241486
0.00237537
0.00230322
0.00218427
0.00201661
0.00181033
0.00158318
0.00135482
0.00190253
0.00200041
0.00215334
0.00232226
0.00247359
0.00258804
0.00266304
0.00270492
0.00272296
0.00272598
0.00272295
0.00272571
0.0027432
0.00278193
0.00283243
0.00286137
0.00282819
0.00275619
0.0026796
0.00262354
0.00258855
0.00256411
0.00253987
0.00250276
0.00243453
0.00232544
0.00216991
0.00197694
0.00175252
0.00151551
0.0017877
0.00182889
0.00196022
0.00213628
0.0023122
0.00245923
0.00256798
0.00264087
0.00268628
0.00271449
0.00273567
0.00276282
0.00280427
0.00286633
0.00293972
0.00297959
0.00294919
0.00287497
0.00280025
0.00274341
0.00270537
0.00267788
0.00265269
0.0026145
0.00254952
0.00244939
0.00230961
0.00212751
0.00190729
0.00166547
0.00169222
0.00166265
0.00175943
0.00193002
0.00212295
0.00229929
0.00244112
0.00254633
0.00262157
0.00267603
0.00272273
0.00277487
0.00284092
0.00292852
0.00302322
0.00307314
0.00304838
0.0029786
0.00290521
0.00284961
0.00281012
0.00278317
0.00275387
0.00271421
0.00265215
0.0025625
0.00243663
0.00226184
0.00204604
0.0018019
0.00163508
0.00153265
0.00157696
0.00172289
0.00191903
0.00211695
0.00228886
0.00242579
0.00253155
0.00261484
0.00268758
0.00276519
0.00285581
0.00297002
0.00308431
0.00314531
0.00312795
0.00306577
0.00299659
0.00294388
0.00290391
0.00287446
0.0028448
0.00280463
0.00274642
0.00266751
0.0025493
0.00238033
0.00216818
0.00192293
0.00164899
0.00147618
0.00144707
0.00154354
0.00172091
0.00192572
0.00211987
0.00228538
0.00242094
0.00253331
0.00263377
0.00273664
0.00285131
0.00299196
0.00312411
0.00319586
0.0031898
0.00314022
0.00307649
0.00302622
0.00298583
0.00295629
0.00292761
0.00288796
0.0028377
0.0027632
0.00264824
0.00248341
0.00227366
0.00202748
0.00173061
0.00152151
0.0014125
0.00143166
0.00155915
0.00174659
0.00194761
0.00213377
0.00229557
0.00243571
0.00256359
0.00269188
0.00282976
0.00299526
0.00314366
0.00322732
0.00323552
0.00319949
0.00314563
0.00310118
0.00306468
0.0030363
0.00300612
0.00297092
0.00292469
0.00284939
0.00273483
0.00257261
0.00236294
0.00211524
0.00189767
0.00166518
0.00149488
0.00142236
0.00147381
0.0016097
0.00179247
0.00198384
0.00216353
0.00232723
0.00248055
0.00263326
0.00279346
0.0029805
0.00314373
0.00324069
0.00326555
0.00324557
0.00320431
0.00316726
0.00313808
0.00311377
0.00308435
0.00305214
0.00300397
0.00292662
0.00280998
0.00264727
0.00243641
0.00218636
0.00216171
0.00191474
0.00170107
0.00155033
0.00149561
0.00155024
0.00168159
0.00185362
0.00203591
0.00221456
0.00238864
0.00256238
0.00274499
0.00294816
0.00312426
0.0032354
0.00327872
0.00327679
0.00325105
0.00322345
0.00320379
0.00318169
0.00315686
0.00312498
0.00307546
0.00299503
0.00287418
0.00270799
0.00249513
0.0022414
0.00249939
0.00224684
0.00200578
0.00179498
0.00164667
0.0015925
0.00163983
0.00176497
0.00192635
0.00210567
0.00229239
0.0024818
0.00268286
0.00289588
0.00308242
0.0032076
0.00327039
0.00328785
0.00328017
0.00326421
0.00325261
0.00323748
0.00322086
0.00319072
0.00314
0.00305534
0.0029282
0.0027561
0.00253818
0.00228072
0.00287808
0.00262455
0.00236698
0.0021158
0.00189559
0.0017421
0.00168559
0.00172475
0.00184813
0.00200791
0.00219569
0.0023934
0.00260207
0.00281838
0.00300846
0.00314627
0.0032284
0.00326509
0.00327641
0.0032743
0.0032718
0.00326808
0.0032617
0.00324041
0.00319132
0.00310508
0.00297341
0.00279329
0.00256753
0.00230544
0.00325844
0.00300593
0.00273912
0.00246321
0.00219515
0.00196504
0.00181109
0.00175775
0.00180131
0.00193132
0.00210084
0.00229025
0.00249703
0.00270376
0.00288536
0.00302892
0.00312777
0.0031879
0.00321581
0.00322864
0.00323906
0.00324946
0.00325473
0.00324189
0.00319688
0.00311832
0.00299295
0.00281381
0.00258426
0.0023165
0.00359884
0.00334924
0.00307928
0.00279097
0.00249531
0.00221475
0.00198458
0.00184101
0.00180152
0.00185644
0.00198123
0.00214549
0.00232905
0.00251466
0.0026869
0.00282935
0.00294225
0.00301912
0.00306577
0.00309901
0.00312781
0.003158
0.00318152
0.00318725
0.00315524
0.00307828
0.00296278
0.00279932
0.00257706
0.00231098
0.00385886
0.00361582
0.00334942
0.00305946
0.00275258
0.00244434
0.00216308
0.00194514
0.00182008
0.00179256
0.00184694
0.00195819
0.00210365
0.00225642
0.00240181
0.00253687
0.00265652
0.00274297
0.00280958
0.00286403
0.00291675
0.00297027
0.00301742
0.00304839
0.00304525
0.00298691
0.0028781
0.00272146
0.00252426
0.00227697
0.00400347
0.0037738
0.0035194
0.00323844
0.00293437
0.00261745
0.00230903
0.00204031
0.00184358
0.00173513
0.0017079
0.00174792
0.00183805
0.00195704
0.00208006
0.00220495
0.0023156
0.00240658
0.00248381
0.00255376
0.00262519
0.00269591
0.0027628
0.0028171
0.00284308
0.00282123
0.0027354
0.00259956
0.00241
0.00218677
0.004013
0.0038071
0.00357606
0.00331654
0.00302983
0.00272288
0.00241247
0.00212508
0.00189104
0.00173017
0.00164252
0.00162494
0.00166952
0.00175508
0.00186539
0.00197316
0.00206567
0.00214561
0.00221633
0.00228564
0.00235268
0.00242012
0.00248647
0.00254497
0.00258285
0.00258347
0.00253027
0.00241219
0.00225244
0.00206149
0.00390171
0.00373414
0.00354229
0.00332082
0.00306997
0.00279555
0.0025131
0.00224647
0.00202233
0.00185556
0.00174863
0.00171017
0.00173088
0.00179386
0.00188593
0.00197131
0.00203955
0.00209678
0.00215014
0.0021979
0.00224226
0.00228575
0.00232805
0.00236488
0.00238689