/*--------------------------------*- C++ -*----------------------------------*\
| =========                 |                                                 |
| \\      /  F ield         | OpenFOAM: The Open Source CFD Toolbox           |
|  \\    /   O peration     | Version:  5.0                                   |
|   \\  /    A nd           | Web:      www.OpenFOAM.org                      |
|    \\/     M anipulation  |                                                 |
\*---------------------------------------------------------------------------*/
FoamFile
{
    version     2.0;
    format      ascii;
    class       volScalarField;
    location    "2000/air";
    object      alphat;
}
// * * * * * * * * * * * * * * * * * * * * * * * * * * * * * * * * * * * * * //

dimensions      [1 -1 -1 0 0 0 0];

internalField   nonuniform List<scalar> 
243000
(
0.000170137
0.000172873
0.000169297
0.000163934
0.000157408
0.000150316
0.000142994
0.000135694
0.000128595
0.000121858
0.000115585
0.000109845
0.00010461
9.99109e-05
9.57334e-05
9.21435e-05
8.9181e-05
8.69926e-05
8.53172e-05
8.50606e-05
8.49668e-05
8.49357e-05
8.4131e-05
0.00037656
8.24533e-05
0.000359807
0.000344933
0.000309918
0.000341624
9.06528e-05
0.000741764
0.000784595
0.000793467
0.000791394
0.000782455
0.00076885
0.000752015
0.00073298
0.00071241
0.000690916
0.000668897
0.000646706
0.00062436
0.000602392
0.000581145
0.000561141
0.000542657
0.000526844
0.000515065
0.000505634
0.000497518
0.0004875
0.000474056
0.000457189
0.000429304
0.000403087
0.000371953
0.000335936
0.000333987
0.000378613
0.000800361
0.00084369
0.000855483
0.000854443
0.000845629
0.00083164
0.000814091
0.000794087
0.000772365
0.000749635
0.000726319
0.000702824
0.000679252
0.000656254
0.000634245
0.000613795
0.000595139
0.000579385
0.000566734
0.000556679
0.000547408
0.000536847
0.000522759
0.000503659
0.000478462
0.00044774
0.000410568
0.000369908
0.000347115
0.000387346
0.000826901
0.000871771
0.000886985
0.000889001
0.000882468
0.00087021
0.000853893
0.000834679
0.000813377
0.000790761
0.000767342
0.000743652
0.00071988
0.000696769
0.000674824
0.000654669
0.000636509
0.000621351
0.000608978
0.000598706
0.000588871
0.000577605
0.000562869
0.000543063
0.000517373
0.000485365
0.000446265
0.000403888
0.000374089
0.00038836
0.00083189
0.000876844
0.000898271
0.000904848
0.00090186
0.000892501
0.000878476
0.000861045
0.000841076
0.000819432
0.000796708
0.00077355
0.000750255
0.000727662
0.000706323
0.000686935
0.000669656
0.000655354
0.00064349
0.000633163
0.000622803
0.000610822
0.000595465
0.000575245
0.00054931
0.000517074
0.000477797
0.000435112
0.000400482
0.000392823
0.000822202
0.000868053
0.000895001
0.000907161
0.000908721
0.000902972
0.000891905
0.000876871
0.000858833
0.000838757
0.000817275
0.000795157
0.000772802
0.000751169
0.000730775
0.000712464
0.000696295
0.000682974
0.000671683
0.000661374
0.000650577
0.000637947
0.000622029
0.000601529
0.000575584
0.000543574
0.000504822
0.000462445
0.000425167
0.000401953
0.000800489
0.000849628
0.000882073
0.000899654
0.000906159
0.000904649
0.000896821
0.000884492
0.000868858
0.000850786
0.000830952
0.000810246
0.000789163
0.000768787
0.000749579
0.000732535
0.000717612
0.000705306
0.000694605
0.000684367
0.00067323
0.000660053
0.000643663
0.000622972
0.000597162
0.000565574
0.000527581
0.000485876
0.000447315
0.000416651
0.000768681
0.000823053
0.000861151
0.000884425
0.000896175
0.000899167
0.000895251
0.000886075
0.000872785
0.00085694
0.000839082
0.00082008
0.000800525
0.000781575
0.000763737
0.000748073
0.000734464
0.000723168
0.00071305
0.000702933
0.000691553
0.000677955
0.000661193
0.000640391
0.000614798
0.000583719
0.000546618
0.000505976
0.000466967
0.000432275
0.00072985
0.000790019
0.000834018
0.000863084
0.000880266
0.000887913
0.000888103
0.000882413
0.000872273
0.000858735
0.00084274
0.000825621
0.000807756
0.00079037
0.000774011
0.000759784
0.000747502
0.000737187
0.000727641
0.00071769
0.000706171
0.000692276
0.00067526
0.000654424
0.000629102
0.000598635
0.000562229
0.000522779
0.000483693
0.00044737
0.000691682
0.000754943
0.000803233
0.00083727
0.000859711
0.000872095
0.000876507
0.000874549
0.000867557
0.000856725
0.000843136
0.000827695
0.000811569
0.000795825
0.000781
0.00076822
0.000757237
0.000747863
0.000738873
0.000729132
0.000717571
0.00070351
0.00068636
0.000665576
0.000640621
0.000610602
0.000574763
0.000536774
0.000497989
0.000460808
0.000656402
0.000719069
0.000771473
0.000809896
0.000836151
0.000852826
0.000861388
0.000863226
0.000859542
0.000851526
0.000840278
0.000827027
0.000812634
0.000798473
0.000785192
0.000773828
0.000764081
0.000755605
0.000747155
0.000737662
0.000726158
0.000712056
0.000694901
0.000674287
0.000649643
0.000619993
0.000584909
0.000548424
0.000510167
0.000472284
0.000628673
0.000683137
0.000738205
0.000781237
0.000811826
0.000831952
0.000843752
0.00084914
0.000848802
0.000843686
0.000834927
0.000823771
0.000811251
0.0007988
0.000786992
0.000776979
0.000768383
0.000760756
0.000752829
0.000743624
0.000732268
0.000718249
0.000701256
0.000680846
0.000656428
0.000627125
0.000593534
0.000558291
0.000520582
0.000482323
0.000615029
0.000650116
0.00070365
0.00075076
0.000786101
0.000810267
0.000825317
0.000833253
0.000835907
0.000833674
0.000827447
0.000818479
0.00080784
0.000797046
0.000786718
0.000777987
0.000770464
0.0007636
0.000756188
0.00074731
0.000736212
0.000722436
0.000705614
0.000685395
0.000661216
0.000632285
0.000600518
0.000566543
0.000529426
0.000491051
0.000621507
0.000626813
0.000669841
0.000718504
0.000758513
0.000787256
0.000806082
0.000816973
0.000821838
0.000822026
0.000818234
0.000811463
0.000802717
0.000793555
0.000784654
0.000777125
0.000770533
0.000764405
0.000757518
0.000749041
0.000738225
0.000724662
0.000708057
0.000688103
0.000664208
0.000636253
0.000606115
0.000573348
0.000536839
0.000498584
0.000649197
0.000622718
0.000642546
0.000686037
0.000729074
0.000762541
0.000785655
0.000799961
0.000807416
0.000809589
0.00080775
0.000803037
0.00079616
0.000788583
0.000781047
0.000774635
0.000768922
0.000763436
0.000756986
0.000748799
0.000738271
0.000725002
0.00070869
0.000689064
0.000665594
0.000639246
0.000610532
0.000578865
0.000542942
0.000505021
0.000691958
0.000646225
0.000632406
0.000658314
0.000699104
0.000736154
0.000763747
0.000781925
0.00079238
0.000796826
0.000796742
0.000793596
0.000788429
0.000782371
0.000776122
0.000770743
0.000765828
0.000760935
0.000754956
0.000747168
0.000736921
0.00072394
0.000707904
0.000688585
0.000666093
0.000641288
0.000613874
0.000583206
0.000547827
0.000510382
0.000743036
0.000692402
0.000650819
0.000645256
0.000672819
0.000709235
0.000740443
0.000762677
0.000776516
0.000783566
0.000785463
0.000783734
0.00077985
0.000775155
0.000770091
0.000765659
0.000761471
0.000757128
0.000751608
0.000744237
0.000734405
0.000721734
0.000706024
0.000687149
0.000665988
0.000642516
0.000616256
0.000586476
0.000551578
0.000514709
0.000793863
0.000746945
0.000694902
0.0006584
0.000658626
0.000685289
0.000716753
0.000742353
0.000759715
0.00076966
0.000773771
0.0007737
0.000770929
0.000767217
0.000763175
0.000759591
0.000756071
0.000752238
0.000747165
0.000740227
0.000730839
0.000718594
0.000703308
0.000685498
0.000665455
0.000643079
0.000617802
0.00058878
0.000554276
0.000517956
0.000842183
0.000801018
0.0007505
0.000698015
0.000666902
0.000671129
0.000695491
0.000721812
0.000742132
0.000755054
0.000761587
0.000763354
0.000761908
0.000758955
0.000755636
0.000752759
0.000749836
0.000746484
0.000741855
0.000735362
0.000726453
0.00071473
0.000700341
0.000683605
0.00066456
0.000643067
0.000618623
0.000590225
0.000556018
0.000520505
0.000888727
0.000852095
0.00080653
0.000751974
0.000700366
0.00067513
0.00068194
0.000703218
0.000724468
0.000739904
0.000748891
0.000752626
0.000752685
0.000750689
0.000747899
0.000745443
0.000742997
0.000740088
0.000735903
0.000729873
0.000721488
0.000710636
0.000697278
0.000681525
0.000663377
0.000642657
0.000618847
0.000590929
0.000556906
0.00052244
0.00093328
0.000899387
0.000858707
0.000807983
0.000749863
0.000701274
0.000682278
0.000690361
0.000708304
0.00072476
0.000735832
0.000741542
0.00074319
0.000742332
0.000740247
0.000738082
0.000735864
0.000733306
0.000729549
0.000724071
0.000716507
0.000706585
0.000694183
0.00067934
0.000662008
0.000641969
0.000618648
0.000591011
0.000557035
0.000524015
0.000975677
0.000944547
0.000907279
0.000860861
0.000803935
0.000743871
0.000700777
0.000687888
0.000696339
0.000710779
0.000722844
0.000730238
0.000733459
0.000733851
0.00073263
0.000730932
0.000729031
0.000726738
0.000723416
0.000718534
0.000711722
0.000702664
0.000691173
0.000677193
0.000660618
0.000641171
0.000618226
0.000590706
0.000556675
0.000526446
0.00101593
0.000986822
0.000952026
0.000909126
0.000855726
0.00079328
0.00073464
0.000699305
0.000691828
0.000699836
0.00071079
0.000719095
0.000723673
0.00072531
0.000725081
0.00072401
0.000722532
0.000720576
0.000717683
0.00071337
0.000707267
0.000699028
0.000688424
0.000675289
0.000659447
0.000640538
0.000617849
0.000590267
0.000556121
0.000532001
0.00105421
0.00102617
0.000993041
0.000952764
0.000902911
0.000842324
0.00077704
0.000724007
0.000697629
0.000694315
0.000701123
0.000708901
0.000714293
0.000717039
0.000717844
0.000717545
0.000716605
0.000715071
0.000712631
0.000708878
0.000703442
0.000695991
0.000686246
0.000673933
0.000658781
0.000640358
0.000617846
0.00059002
0.000555696
0.000540448
0.00108855
0.00106168
0.00103012
0.000992069
0.000945376
0.000888113
0.000822118
0.000758671
0.000714897
0.000696992
0.000696103
0.000701295
0.000706544
0.000710069
0.000711889
0.000712495
0.000712235
0.000711228
0.000709276
0.000706047
0.000701205
0.000694415
0.000685347
0.00067372
0.000659222
0.000641308
0.000618938
0.000590653
0.000555931
0.000551963
0.00112067
0.00109488
0.00106477
0.00102877
0.000985039
0.000931552
0.000868076
0.000800847
0.000744605
0.000711683
0.000700204
0.000700276
0.00070412
0.000708001
0.000710867
0.000712574
0.000713197
0.000712827
0.000711335
0.000708476
0.00070399
0.000697607
0.000689035
0.000677919
0.000663844
0.000646096
0.000623426
0.000593995
0.000558527
0.000567471
0.00115394
0.00112965
0.00110133
0.00106769
0.00102722
0.000978215
0.000919604
0.000854253
0.000792493
0.00074783
0.000725132
0.000718425
0.000719675
0.000723701
0.000727951
0.00073116
0.000732862
0.00073307
0.000731659
0.000728518
0.000723553
0.00071666
0.000707653
0.00069617
0.000681657
0.000663234
0.000639258
0.000607357
0.000569143
0.000591497
0.00119684
0.00117495
0.00114951
0.00111976
0.00108479
0.00104338
0.000994346
0.00093845
0.000881597
0.00083487
0.000806498
0.000795221
0.000794785
0.000799754
0.000806
0.000810836
0.000813109
0.00081285
0.000809949
0.000804565
0.000796937
0.000787289
0.000775678
0.000761701
0.000744457
0.000723051
0.0006955
0.000658245
0.000613274
0.000643601
0.00128107
0.00126431
0.0012464
0.0012272
0.00120608
0.00118213
0.00115389
0.001121
0.00108524
0.00105378
0.00103383
0.0010262
0.00102743
0.00103412
0.00104133
0.00104603
0.00104678
0.00104411
0.00103818
0.0010293
0.00101806
0.00100498
0.000990427
0.000973801
0.000952644
0.000927823
0.000897463
0.000857373
0.000808069
0.000824319
0.00155857
0.0015541
0.00155552
0.0015568
0.0015567
0.00155458
0.00154956
0.00154164
0.00152836
0.00151521
0.00150584
0.00150056
0.00149898
0.00150174
0.00150475
0.00150675
0.00150584
0.00150466
0.00150282
0.00150094
0.0014989
0.00149718
0.00149567
0.00149358
0.00148307
0.00147217
0.00145803
0.00143766
0.00141021
0.0014036
0.000206379
0.000213371
0.000210433
0.000204384
0.00019657
0.000187825
0.000178712
0.000169639
0.000160838
0.000152488
0.000144659
0.000137448
0.000130857
0.000125017
0.000119942
0.000115777
0.000112579
0.000110594
0.0001099
0.000110138
0.000110428
0.000109775
0.000107342
0.000102512
9.49217e-05
8.39233e-05
0.000353385
0.0003314
0.000362148
9.3578e-05
0.000800242
0.000902766
0.000874174
0.000813765
0.000746261
0.00068257
0.000626047
0.000576544
0.000533046
0.000495213
0.000462031
0.000433251
0.000407498
0.000385252
0.00036558
0.000348639
0.000332769
0.000319944
0.000310201
0.000304763
0.000303284
0.000303548
0.000300437
0.000289814
0.000270697
0.000246182
0.000283763
0.000344892
0.000372369
0.000384736
0.00127155
0.00147072
0.00148193
0.00142051
0.00133271
0.00123979
0.00115174
0.00107135
0.000998741
0.000934325
0.000876935
0.000826573
0.0007811
0.00074158
0.000706824
0.000676198
0.000646054
0.000619233
0.000594408
0.000574259
0.000560601
0.000551338
0.000539315
0.000517747
0.000481867
0.00043422
0.000398135
0.000390699
0.000428398
0.000465599
0.00157925
0.00184682
0.00189763
0.00186164
0.0017827
0.00168698
0.0015889
0.00149481
0.00140686
0.00132676
0.00125397
0.00118922
0.0011306
0.00107932
0.00103473
0.000995275
0.000955749
0.000918373
0.000880304
0.000844962
0.000816303
0.000793893
0.000769777
0.000734833
0.000683659
0.000616001
0.000541661
0.000477967
0.000466931
0.000488367
0.00173721
0.00202019
0.00213732
0.00215159
0.00209937
0.00201728
0.00192357
0.001829
0.00173664
0.00165043
0.00157044
0.00149846
0.00143285
0.00137549
0.00132639
0.00128316
0.00123842
0.00119412
0.00114573
0.0010975
0.00105484
0.00101894
0.000981992
0.00093498
0.000871625
0.00078992
0.000693824
0.000593908
0.00053649
0.000518111
0.00182465
0.00211013
0.00226868
0.00232211
0.00230617
0.0022471
0.00216603
0.0020812
0.00199203
0.00190773
0.00182722
0.00175391
0.00168688
0.00162845
0.00157905
0.00153561
0.00148928
0.00144076
0.00138467
0.00132607
0.00127148
0.00122326
0.00117477
0.00111767
0.00104501
0.00095363
0.000845267
0.000725097
0.000634403
0.000583038
0.00185716
0.00213758
0.00231594
0.00240356
0.00242296
0.00239592
0.00233972
0.00226284
0.00218033
0.00210585
0.00202994
0.0019602
0.00189637
0.00184119
0.00179449
0.00175423
0.00170863
0.00165779
0.00159626
0.00152964
0.00146545
0.00140622
0.00134829
0.0012833
0.00120398
0.00110641
0.000990879
0.000860346
0.000747727
0.000669293
0.00184096
0.00209613
0.00229069
0.00241102
0.00246681
0.00247126
0.00244139
0.00238649
0.0023245
0.00225478
0.0021844
0.0021229
0.00206564
0.0020169
0.00197562
0.00194069
0.00189786
0.00184624
0.00178124
0.00170874
0.00163709
0.0015704
0.00150448
0.00143292
0.00134899
0.00124785
0.00112897
0.000993035
0.000865488
0.000760409
0.00174209
0.00198686
0.00220092
0.00235503
0.00244884
0.0024863
0.00248576
0.00245846
0.00241528
0.00236089
0.00230507
0.00224823
0.0021992
0.00215893
0.0021254
0.00209743
0.00205879
0.00200798
0.00194118
0.00186575
0.00178951
0.00171678
0.00164528
0.00156874
0.00148127
0.00137831
0.0012593
0.0011203
0.000981832
0.000851538
0.00158945
0.00181727
0.00205372
0.00224352
0.00237782
0.00245082
0.00248344
0.00248504
0.00246524
0.00242945
0.00238729
0.00234267
0.00230182
0.00227069
0.00224666
0.00222656
0.00219311
0.00214429
0.00207739
0.00200028
0.0019206
0.00184442
0.00176931
0.00169111
0.00160213
0.0014997
0.00138104
0.00124093
0.00109378
0.000939613
0.00144079
0.00162191
0.00185579
0.00208072
0.00226101
0.00237183
0.00244119
0.00247329
0.00247876
0.0024639
0.00243785
0.00240693
0.00237681
0.00235682
0.00234211
0.00233006
0.00230288
0.00225695
0.00219142
0.00211439
0.00203369
0.00195481
0.00187845
0.00180061
0.00171305
0.00160944
0.00149363
0.00135088
0.00119609
0.0010226
0.00131913
0.00143323
0.00163918
0.00187659
0.00209202
0.00225289
0.00236429
0.00242847
0.00246019
0.00246782
0.00246013
0.00244469
0.00242771
0.00241817
0.00241387
0.00241005
0.00238966
0.00234747
0.00228458
0.00220941
0.00213022
0.00205183
0.00197597
0.0018971
0.00180952
0.00170702
0.0015924
0.00144851
0.00128563
0.00109758
0.00123631
0.00127671
0.00143301
0.00165768
0.00189109
0.00209155
0.00224705
0.00235402
0.00241321
0.00244477
0.00245711
0.00245871
0.00245605
0.00245849
0.00246416
0.00246869
0.00245492
0.00241728
0.00235834
0.00228617
0.00220869
0.0021318
0.00205581
0.00197824
0.00189206
0.00179485
0.00167808
0.0015319
0.00136188
0.00116074
0.00122187
0.00117459
0.00126407
0.00144996
0.00167946
0.00190429
0.0020956
0.00224127
0.00233964
0.00239829
0.00243148
0.0024514
0.00246406
0.00247913
0.0024951
0.00250787
0.00250093
0.00246812
0.00241403
0.00234525
0.00226765
0.00219052
0.00211619
0.00204348
0.00196082
0.00186915
0.00175025
0.00160113
0.0014244
0.00121224
0.00126444
0.00115213
0.00116183
0.00128303
0.00148082
0.0017092
0.00192342
0.00210039
0.00223403
0.0023275
0.00238651
0.00242484
0.00245371
0.00248193
0.00250806
0.00252899
0.00252952
0.00250232
0.00245361
0.00239015
0.0023175
0.00224028
0.00216602
0.00209452
0.00202013
0.00192868
0.00180832
0.00165624
0.00147323
0.00125187
0.00137374
0.00120924
0.00113528
0.00118402
0.00132364
0.00152718
0.00174572
0.00194316
0.00210546
0.00223037
0.00232007
0.0023817
0.00242702
0.00246845
0.00250453
0.00253373
0.00254213
0.0025216
0.00247902
0.00242143
0.00235441
0.0022824
0.00220952
0.00213902
0.00206765
0.001975
0.00185287
0.00169777
0.00150889
0.00127989
0.00155531
0.00135384
0.00121264
0.00116377
0.00123285
0.00138157
0.00158025
0.00178299
0.00196412
0.00211451
0.00223186
0.00232054
0.00238593
0.00244049
0.00248643
0.00252389
0.00254039
0.00252762
0.0024919
0.00244106
0.00238028
0.00231561
0.00224794
0.00217963
0.00210385
0.00200931
0.00188501
0.0017267
0.00153226
0.00129678
0.00180467
0.00158073
0.00138959
0.00125938
0.00122432
0.00130008
0.00144918
0.00163579
0.00182179
0.00198874
0.00212836
0.00224095
0.00232957
0.00239988
0.00245586
0.00250144
0.00252628
0.00252223
0.0024942
0.00245126
0.00239819
0.00234234
0.0022819
0.00221255
0.00213179
0.00203362
0.00190639
0.0017445
0.00154459
0.0013035
0.00211145
0.00187575
0.00165209
0.00145819
0.00133037
0.00130138
0.00137693
0.00152038
0.00169221
0.00186321
0.00201713
0.0021485
0.00225729
0.00234697
0.00241526
0.00246861
0.0025021
0.00250773
0.00248853
0.0024553
0.00241217
0.00236453
0.00230875
0.00223851
0.00215349
0.00205004
0.00191903
0.00175299
0.0015474
0.00130114
0.00246028
0.00221987
0.00197625
0.00173861
0.00153539
0.00140738
0.00138169
0.00145658
0.00159119
0.0017495
0.00190678
0.00204958
0.00217363
0.00227932
0.00236318
0.00242763
0.00247036
0.00248661
0.00247791
0.0024546
0.00242068
0.00237903
0.00232716
0.00225647
0.00216873
0.00206043
0.00192512
0.00175424
0.00154222
0.00128979
0.00283029
0.00258974
0.00233454
0.00206878
0.00181225
0.00160166
0.00147786
0.00145825
0.00153286
0.00166002
0.00180665
0.00195094
0.0020831
0.00219959
0.00229553
0.00237207
0.00242556
0.00245299
0.00245554
0.00244191
0.0024162
0.00238184
0.00233276
0.00226466
0.00217789
0.00206787
0.00192706
0.00175046
0.00153151
0.00127423
0.00319428
0.00295663
0.00269618
0.0024143
0.00212403
0.00185442
0.00164725
0.00153524
0.00152833
0.0016034
0.00172448
0.00185774
0.00198817
0.00210729
0.00220825
0.00229094
0.00235133
0.00238821
0.00240208
0.00240015
0.00238532
0.00235981
0.00232038
0.00226027
0.00217542
0.00206375
0.00192135
0.00174135
0.00151707
0.00125539
0.00351762
0.00328571
0.00302636
0.00273893
0.00243176
0.0021264
0.00185923
0.00166829
0.00157861
0.00158539
0.00165794
0.00176769
0.00188313
0.0019922
0.00208584
0.002164
0.00222326
0.00226441
0.00228838
0.00230063
0.00230213
0.00229381
0.00227185
0.0022294
0.00215847
0.00205186
0.00190445
0.00172324
0.00149586
0.00123291
0.00375674
0.00353526
0.00328498
0.00300326
0.00269488
0.00237482
0.00207195
0.00182229
0.00165866
0.00159249
0.00160385
0.00166472
0.00174583
0.00182622
0.00189652
0.00195613
0.00200397
0.00204365
0.00207512
0.00210247
0.00212455
0.00214024
0.00214525
0.00213187
0.00209026
0.00200872
0.00187555
0.0016918
0.00146523
0.00120449
0.00386153
0.00365893
0.00342862
0.00316567
0.00287155
0.00255557
0.00223895
0.00195239
0.00173077
0.00159427
0.00153594
0.00153219
0.00155971
0.00159719
0.00163599
0.00167268
0.00170638
0.00173964
0.00177377
0.00181005
0.0018473
0.00188415
0.00191646
0.00193649
0.00193352
0.00189403
0.00179901
0.00163966
0.00142082
0.00117592
0.00379312
0.00362323
0.00342699
0.00319754
0.00293345
0.00263995
0.00233292
0.00203843
0.00178918
0.00160789
0.00149634
0.00144009
0.00142517
0.0014352
0.00145971
0.00148838
0.00151514
0.00154103
0.00156848
0.00159608
0.0016252
0.00165634
0.00168795
0.00171499
0.00172891
0.00171733
0.00166163
0.00153972
0.00135678
0.00115192
0.00357005
0.00345091
0.00330693
0.00312978
0.00291652
0.00267149
0.00240927
0.00215362
0.00193059
0.00175994
0.0016434
0.0015771
0.00155628
0.0015659
0.00159424
0.00162563
0.00165033
0.00167058
0.00168639
0.00169656
0.00170279
0.00170668
0.0017089
0.00170655
0.00169391
0.0016612
0.00159248
0.00146935
0.00128884
0.00112314
0.00335569
0.00330036
0.00321888
0.00310562
0.00295889
0.00278455
0.00259716
0.00241379
0.00225044
0.00212033
0.00202653
0.00197555
0.00196038
0.00197153
0.00199806
0.00202672
0.00204806
0.00206596
0.00207704
0.00208156
0.00208002
0.00207281
0.00206094
0.00203999
0.00200411
0.00194366
0.00184192
0.00167707
0.00144822
0.00130289
0.00325423
0.00323421
0.00321075
0.00316411
0.00308787
0.00298967
0.00287443
0.00275554
0.00264315
0.00254713
0.00247473
0.00243069
0.00241086
0.00241095
0.00242192
0.00243789
0.00245205
0.0024666
0.00247912
0.00249032
0.00250011
0.0025064
0.00251165
0.00250832
0.00249158
0.00245358
0.00237902
0.00224929
0.00206443
0.00197979
0.00323764
0.00323816
0.00323959
0.00322266
0.00318326
0.00313103
0.00306792
0.00299628
0.00292342
0.00285868
0.00280648
0.00276703
0.00274109
0.00272912
0.00272507
0.00273044
0.00273904
0.00275239
0.00276972
0.00279152
0.00281695
0.0028457
0.00287076
0.00289387
0.00291143
0.00291895
0.00290681
0.00287144
0.00282244
0.00279875
0.000237552
0.000244624
0.000239523
0.000232166
0.000223186
0.000213255
0.000202948
0.0001927
0.000182765
0.000173339
0.000164484
0.000156316
0.000148812
0.000142151
0.00013636
0.000131678
0.000128246
0.000126808
0.000127826
0.000130386
0.000132504
0.000132598
0.000129685
0.000123118
0.000112384
9.68414e-05
8.06116e-05
0.000343421
8.66187e-05
9.39283e-05
0.00102947
0.0011801
0.00118436
0.00111952
0.00103513
0.000952067
0.00087652
0.000810239
0.000751741
0.000700351
0.000654217
0.000613125
0.000574564
0.000539965
0.000507286
0.000477223
0.000447328
0.00042604
0.000415667
0.000417548
0.000427518
0.000437791
0.000437033
0.00041693
0.00037756
0.000325601
0.000271347
0.000332845
0.000326909
0.000373004
0.00165275
0.00194237
0.00201329
0.00196712
0.00187046
0.00175804
0.00164537
0.00154002
0.00144298
0.001355
0.00127417
0.00120079
0.00113125
0.00106817
0.00100938
0.000953799
0.000896144
0.000849385
0.00081477
0.000797731
0.000796847
0.000801434
0.000789244
0.000751433
0.00068285
0.000587273
0.000480334
0.000422135
0.00043148
0.000497023
0.00211591
0.00246109
0.00258143
0.00257238
0.00249169
0.00238141
0.00226001
0.00213924
0.00202321
0.00191478
0.0018131
0.00171945
0.00163059
0.00154938
0.0014746
0.00140345
0.00132773
0.00126017
0.00120227
0.00116328
0.00114436
0.00113443
0.00111133
0.00105781
0.000966267
0.000840046
0.00069268
0.000557921
0.000509119
0.00054376
0.0024262
0.00278382
0.00294987
0.00298422
0.00293063
0.00283797
0.00272373
0.00260309
0.00248172
0.00236537
0.00225412
0.00215071
0.00205194
0.0019618
0.0018799
0.00180113
0.00171401
0.00162952
0.00155107
0.00149154
0.00145427
0.00142961
0.00139425
0.00132903
0.00122353
0.00107865
0.000905603
0.000725669
0.000616711
0.000599623
0.00261458
0.00295378
0.00315306
0.00323278
0.00322483
0.00316019
0.00306179
0.00295226
0.00283447
0.00272011
0.00260784
0.00250273
0.00240214
0.00231085
0.0022282
0.0021476
0.00205324
0.00195435
0.00185816
0.00178049
0.00172604
0.00168773
0.00164268
0.00156869
0.0014558
0.00130159
0.00111482
0.000909521
0.000756674
0.000693273
0.00275239
0.00306828
0.00327282
0.00337961
0.00340625
0.00337656
0.00330475
0.00320615
0.00309614
0.00299324
0.00288614
0.00278601
0.00269024
0.00260426
0.00252541
0.00244731
0.00234819
0.0022372
0.002126
0.00203284
0.00196414
0.00191269
0.00185903
0.00178175
0.00166539
0.00150864
0.00131752
0.00109972
0.00091752
0.000815208
0.00284761
0.0031043
0.00330392
0.00343311
0.00349344
0.00349786
0.00345762
0.0033853
0.00330025
0.00320133
0.00309848
0.00301016
0.00292371
0.00284776
0.00277727
0.00270454
0.00260246
0.0024817
0.0023582
0.00225231
0.00217108
0.00210847
0.00204742
0.0019688
0.00185458
0.00170111
0.00151149
0.00129147
0.00108792
0.000951596
0.00283386
0.00305538
0.00325343
0.00340584
0.00350057
0.00354029
0.00353496
0.00349272
0.00342962
0.00335077
0.00327038
0.00318526
0.00310923
0.00304714
0.00298851
0.00292291
0.00281965
0.00269143
0.00255861
0.00244273
0.0023511
0.00227888
0.00221208
0.00213318
0.00202693
0.00187689
0.00169101
0.00147406
0.00126124
0.00109221
0.00273364
0.00292809
0.00312943
0.00330855
0.00343898
0.00351652
0.00354691
0.00353893
0.00350295
0.00344796
0.00338522
0.00331675
0.00325671
0.00320745
0.0031631
0.00310563
0.00300274
0.00286925
0.00272983
0.00260784
0.00250845
0.002428
0.00235729
0.00228046
0.00217706
0.00203403
0.00185796
0.00164556
0.00142728
0.00122935
0.0026054
0.0027609
0.002954
0.00315124
0.00331748
0.0034355
0.00350466
0.00353133
0.00352703
0.00349886
0.00345803
0.00341058
0.00336655
0.00333556
0.00330445
0.00325541
0.00315471
0.00301912
0.00287657
0.00275097
0.00264653
0.00256102
0.00248873
0.00240888
0.00230769
0.00217389
0.00200737
0.00180293
0.00158318
0.00136512
0.00247486
0.00257017
0.00274055
0.00294768
0.00314542
0.00330439
0.00341518
0.00347888
0.00350752
0.00350916
0.00349345
0.00346908
0.00344525
0.00343158
0.00341498
0.00337483
0.00327832
0.00314331
0.00300143
0.00287486
0.00276966
0.00268178
0.00260245
0.00252075
0.00242201
0.00230035
0.00214038
0.00194268
0.00172278
0.00149023
0.00236463
0.00237348
0.00250742
0.00271162
0.00293268
0.00312952
0.00328222
0.00338707
0.00345163
0.00348371
0.0034956
0.00349623
0.00349465
0.00349982
0.00349795
0.00346659
0.00337589
0.00324454
0.00310752
0.00298334
0.00287379
0.00278085
0.00269895
0.00261772
0.00252301
0.00240988
0.00225728
0.00206475
0.00184426
0.00159991
0.00227896
0.00220332
0.00228323
0.0024645
0.00269393
0.00292042
0.00311241
0.00325833
0.00336112
0.00342806
0.00346868
0.00349533
0.00351771
0.00354201
0.00355497
0.00353324
0.0034511
0.00332591
0.00319406
0.0030703
0.00295968
0.00286478
0.00278063
0.0027019
0.00261527
0.00250505
0.00235885
0.00216952
0.00194735
0.00169273
0.00228157
0.00210758
0.00210776
0.00223773
0.00245189
0.00269193
0.00291501
0.00309905
0.00324021
0.00334318
0.00341645
0.00347021
0.00351625
0.00356013
0.00358818
0.00357732
0.00350702
0.00338998
0.00326759
0.00315012
0.00304009
0.00294416
0.00285936
0.00278058
0.00269526
0.00258673
0.00244383
0.00225678
0.00203198
0.00176802
0.00235883
0.00212921
0.00202411
0.00207197
0.0022394
0.00246689
0.00270456
0.00291843
0.00309484
0.00323327
0.00333973
0.00342311
0.003493
0.00355579
0.00359972
0.00360103
0.00354532
0.00343964
0.00332754
0.00321859
0.00311473
0.0030203
0.00293544
0.00285245
0.00276505
0.00265586
0.00251341
0.00232791
0.00209871
0.00182574
0.0025254
0.00225374
0.00206808
0.00201428
0.0021006
0.00227744
0.00250288
0.00273027
0.00293358
0.00310367
0.00324205
0.00335488
0.00344974
0.00353088
0.00359062
0.00360564
0.00356649
0.00347581
0.00337562
0.0032763
0.00318086
0.00309175
0.00300634
0.00291815
0.00282544
0.00271332
0.00256871
0.00238189
0.00214765
0.00186605
0.00280304
0.00250285
0.00225259
0.00209535
0.00205676
0.00216112
0.00233883
0.00255377
0.00276846
0.00296161
0.00312764
0.00326774
0.00338636
0.00348577
0.00356081
0.00359058
0.0035693
0.00349732
0.0034107
0.00332297
0.00323768
0.00315406
0.00306793
0.00297536
0.00287645
0.0027595
0.00261055
0.00241962
0.00217989
0.00188955
0.00316913
0.00285415
0.00256001
0.00231862
0.00216962
0.00214533
0.00224558
0.00241189
0.00261505
0.00281612
0.0030015
0.00316352
0.00330197
0.00341852
0.00350666
0.00355114
0.0035481
0.00349821
0.00342697
0.00335239
0.0032773
0.0031991
0.00311316
0.00301964
0.0029165
0.00279398
0.00263918
0.0024422
0.00219484
0.00189577
0.00358699
0.00326669
0.00294607
0.00264596
0.00240239
0.00225795
0.00223704
0.00233075
0.0024908
0.00267643
0.00286846
0.00304232
0.00319338
0.00332146
0.0034178
0.00347361
0.00348718
0.00346082
0.00340846
0.00334811
0.00328402
0.00321285
0.00313379
0.00304799
0.00294431
0.0028171
0.00265568
0.00245196
0.00219566
0.00188835
0.00401174
0.00369151
0.00335687
0.00302056
0.00271015
0.00246565
0.0023276
0.00231287
0.00239673
0.00255374
0.00273133
0.00289968
0.00305413
0.0031795
0.00327461
0.00333516
0.00336293
0.00335706
0.00332826
0.00328727
0.00324186
0.00318984
0.00312603
0.00304562
0.00294717
0.00282637
0.0026634
0.00245298
0.00218762
0.00187102
0.00439383
0.00407767
0.00373883
0.00338457
0.00303449
0.00272058
0.00248457
0.00236068
0.00235185
0.00243319
0.00257014
0.00271847
0.00285409
0.00296799
0.00304903
0.00310611
0.00314253
0.00315306
0.00314837
0.00313372
0.0031145
0.00308956
0.00305308
0.00299575
0.00290776
0.00278436
0.00263253
0.00242955
0.00216617
0.00184453
0.00468245
0.00437566
0.0040424
0.00368604
0.00331965
0.00296652
0.00266182
0.00244369
0.00233421
0.00232481
0.00238772
0.00248403
0.00258147
0.00266702
0.00272623
0.00277464
0.00281125
0.00283625
0.00285298
0.00286643
0.00287718
0.00288447
0.00288219
0.00286021
0.00280556
0.00270389
0.00255298
0.00236091
0.00211236
0.00180321
0.00482994
0.00454157
0.00422568
0.00388266
0.00352022
0.00315407
0.00281089
0.00252476
0.00232549
0.00222106
0.00219381
0.00221685
0.00226391
0.00231541
0.0023636
0.00240663
0.00244468
0.00247783
0.0025083
0.00253964
0.00257005
0.00259958
0.00262345
0.00263244
0.00261405
0.0025523
0.00242904
0.00225047
0.00201448
0.00172963
0.00480571
0.004549
0.00426555
0.00395269
0.00361373
0.00325887
0.00290813
0.00259065
0.00233746
0.00216498
0.00206638
0.00203028
0.00204121
0.0020767
0.0021292
0.00217819
0.00221939
0.00225345
0.00228594
0.00231429
0.00233966
0.00236335
0.0023837
0.00239457
0.00238619
0.00234543
0.00225389
0.00209751
0.00189417
0.00164066
0.00462061
0.00441517
0.00418412
0.00392168
0.0036283
0.00331198
0.00298963
0.00268809
0.00243678
0.00224961
0.00212722
0.00207419
0.00207578
0.00211257
0.00217403
0.00222915
0.00226997
0.00229998
0.00232385
0.00233745
0.00234271
0.00234132
0.00233367
0.00231626
0.00228199
0.00222057
0.00211714
0.00195843
0.00175658