/*--------------------------------*- C++ -*----------------------------------*\
| =========                 |                                                 |
| \\      /  F ield         | OpenFOAM: The Open Source CFD Toolbox           |
|  \\    /   O peration     | Version:  5.0                                   |
|   \\  /    A nd           | Web:      www.OpenFOAM.org                      |
|    \\/     M anipulation  |                                                 |
\*---------------------------------------------------------------------------*/
FoamFile
{
    version     2.0;
    format      ascii;
    class       volScalarField;
    location    "2000/air";
    object      epsilon;
}
// * * * * * * * * * * * * * * * * * * * * * * * * * * * * * * * * * * * * * //

dimensions      [0 2 -3 0 0 0 0];

internalField   nonuniform List<scalar> 
243000
(
3.58047
4.3723
4.76347
4.99377
5.07516
5.0387
4.90462
4.69433
4.42761
4.12503
3.8038
3.47857
3.15345
2.83811
2.53803
2.26282
2.01773
1.8127
1.73422
1.6376
1.5512
1.41728
1.2639
0.257948
0.975543
0.196092
0.165284
0.129453
0.124156
0.54664
1.87605
2.22006
2.29611
2.27807
2.20166
2.0887
1.95438
1.8096
1.66138
1.5154
1.37498
1.24252
1.11801
1.004
0.901365
0.811366
0.733741
0.671413
0.624508
0.591155
0.559924
0.526673
0.484035
0.430153
0.368875
0.303246
0.237173
0.174766
0.171823
0.251066
2.35662
2.76032
2.87755
2.86694
2.77903
2.64325
2.47931
2.30087
2.11704
1.93546
1.76029
1.59479
1.43952
1.29806
1.17167
1.06184
0.967854
0.892951
0.835538
0.791947
0.753208
0.710469
0.655961
0.586303
0.503704
0.412753
0.318321
0.232915
0.192581
0.267764
2.59886
3.04515
3.2072
3.22896
3.15816
3.02823
2.86091
2.67195
2.47241
2.2717
2.07563
1.88911
1.71352
1.55357
1.41121
1.28838
1.18401
1.10136
1.03687
0.985349
0.937676
0.884941
0.819009
0.735617
0.636309
0.525517
0.408664
0.303047
0.240677
0.268997
2.64621
3.09861
3.33113
3.40465
3.37086
3.26685
3.11508
2.93313
2.73359
2.52777
2.32308
2.12616
1.93962
1.76945
1.61813
1.48837
1.37876
1.29224
1.22333
1.16543
1.10924
1.04654
0.969686
0.874349
0.761506
0.635338
0.501518
0.378839
0.295336
0.278057
2.55501
3.00641
3.2949
3.4308
3.44832
3.3831
3.26004
3.09777
2.91032
2.71077
2.50759
2.30926
2.11973
1.94646
1.79201
1.66051
1.54989
1.46258
1.39125
1.32824
1.26435
1.19224
1.10534
0.999753
0.876057
0.738078
0.591473
0.454757
0.353429
0.298201
2.35814
2.81914
3.15425
3.34635
3.41922
3.40194
3.31418
3.17918
3.01335
2.82899
2.63551
2.44315
2.25715
2.08659
1.93387
1.80478
1.69661
1.61077
1.53859
1.47163
1.40106
1.32052
1.22471
1.11051
0.978301
0.831338
0.675084
0.527392
0.411606
0.332456
2.08839
2.563
2.93521
3.17936
3.30748
3.34047
3.29679
3.19623
3.05433
2.89076
2.71356
2.53312
2.35598
2.19239
2.04548
1.92203
1.81892
1.73626
1.66442
1.59466
1.51859
1.43089
1.32751
1.20628
1.06755
0.913921
0.750788
0.595553
0.468259
0.371423
1.78794
2.26688
2.66659
2.95484
3.13453
3.21664
3.21846
3.15674
3.04893
2.90891
2.74914
2.58475
2.42033
2.26717
2.12908
2.01367
1.91748
1.83917
1.76869
1.69721
1.61692
1.52349
1.41405
1.28732
1.1438
0.985771
0.816955
0.656853
0.520397
0.411902
1.52224
1.97841
2.38225
2.69772
2.92015
3.04786
3.09407
3.07311
2.99973
2.88851
2.75298
2.60422
2.45471
2.31437
2.18723
2.08144
1.99334
1.92021
1.85185
1.77967
1.69649
1.59887
1.48493
1.35426
1.20778
1.04609
0.872808
0.711011
0.567903
0.450042
1.30142
1.70991
2.11093
2.44182
2.68669
2.85038
2.93678
2.95534
2.91737
2.83624
2.72505
2.59788
2.46434
2.3375
2.22258
2.12732
2.04785
1.98044
1.9148
1.84285
1.75812
1.65784
1.54106
1.40813
1.25955
1.09512
0.919703
0.758249
0.610567
0.484517
1.14377
1.46661
1.84979
2.1919
2.45911
2.64624
2.76017
2.81309
2.80942
2.75863
2.67331
2.56729
2.45174
2.34033
2.23786
2.15337
2.0826
2.02119
1.95874
1.88788
1.80286
1.70147
1.58372
1.44964
1.29945
1.13338
0.960935
0.79987
0.648707
0.516092
1.07128
1.26453
1.60243
1.94557
2.2329
2.44481
2.58326
2.65817
2.68338
2.66162
2.60212
2.51812
2.42091
2.32491
2.23548
2.16173
2.09954
2.04392
1.98505
1.91608
1.83214
1.73139
1.61344
1.47891
1.32813
1.16162
0.995244
0.835838
0.682319
0.544645
1.1059
1.13382
1.38289
1.70585
2.00628
2.24259
2.40695
2.50547
2.55019
2.55166
2.51619
2.45392
2.37513
2.29447
2.21791
2.15452
2.10008
2.05037
1.99552
1.92941
1.84721
1.74744
1.63028
1.49655
1.34628
1.1835
1.02328
0.866294
0.711381
0.570121
1.26094
1.11218
1.22116
1.48543
1.78205
2.03824
2.22876
2.35232
2.41835
2.43762
2.42075
2.3783
2.31741
2.2516
2.18744
2.13385
2.08691
2.04256
1.9913
1.92753
1.84754
1.74992
1.63467
1.50286
1.35477
1.20023
1.04577
0.891521
0.735923
0.592509
1.52767
1.24344
1.1647
1.31308
1.57173
1.83429
2.04775
2.19696
2.28586
2.3242
2.32313
2.29542
2.25056
2.1988
2.1463
2.10183
2.06179
2.02253
1.9753
1.91493
1.83741
1.74224
1.62925
1.49974
1.35767
1.21169
1.063
0.911716
0.755978
0.611629
1.89241
1.53031
1.26986
1.23693
1.40158
1.64084
1.86634
2.03895
2.15146
2.21018
2.22591
2.21092
2.17791
2.13853
2.09665
2.06049
2.02678
1.9923
1.94911
1.89246
1.81864
1.72635
1.61632
1.49027
1.35693
1.2186
1.07539
0.927129
0.771637
0.627373
2.30922
1.92247
1.54665
1.31445
1.3152
1.48072
1.69334
1.88059
2.01504
2.09472
2.12807
2.12711
2.10402
2.0735
2.04066
2.01187
1.98394
1.95392
1.91471
1.862
1.79225
1.70391
1.59772
1.47949
1.35361
1.22175
1.08347
0.9381
0.783053
0.639469
2.75815
2.37205
1.94963
1.56703
1.36569
1.39124
1.54755
1.72917
1.87864
1.97791
2.02922
2.04298
2.03105
2.00723
1.98078
1.95807
1.93524
1.90939
1.87415
1.82549
1.76014
1.67653
1.57746
1.46719
1.34809
1.22164
1.08777
0.945035
0.790508
0.648951
3.24235
2.85685
2.42131
1.96066
1.58239
1.41652
1.45928
1.59936
1.748
1.86146
1.92957
1.95814
1.95822
1.94238
1.92055
1.90152
1.88275
1.8607
1.82936
1.78487
1.72424
1.64776
1.55673
1.45374
1.34083
1.21927
1.08895
0.948442
0.794368
0.656223
3.75611
3.36073
2.92382
2.43392
1.94343
1.58798
1.46157
1.51354
1.63392
1.74976
1.83057
1.87301
1.88512
1.87826
1.86221
1.84573
1.82902
1.80997
1.78234
1.74256
1.68865
1.61963
1.53599
1.43971
1.33249
1.21531
1.08789
0.948876
0.795002
0.662066
4.29305
3.89437
3.45011
2.94546
2.39661
1.89626
1.58397
1.4975
1.55277
1.65071
1.73555
1.7888
1.81212
1.81466
1.80533
1.7926
1.77851
1.76173
1.73769
1.7028
1.65494
1.5927
1.51598
1.42602
1.32404
1.21076
1.08567
0.947454
0.793515
0.670032
4.8483
4.44241
3.98758
3.47076
2.89208
2.30129
1.82549
1.57341
1.52292
1.57584
1.65037
1.70831
1.74065
1.7521
1.75013
1.74216
1.73135
1.71725
1.69665
1.66628
1.62397
1.568
1.49787
1.41393
1.31694
1.20714
1.08369
0.945396
0.791196
0.690473
5.41898
4.99693
4.52698
3.99646
3.39909
2.75682
2.1613
1.7464
1.56157
1.53892
1.58409
1.63682
1.67395
1.69291
1.69829
1.69592
1.68909
1.67816
1.66102
1.63493
1.59767
1.54754
1.48359
1.40534
1.3129
1.20609
1.08368
0.944278
0.789438
0.723107
5.96793
5.5355
5.05487
4.51329
3.90322
3.23308
2.56123
2.01011
1.68046
1.55675
1.55035
1.58478
1.62014
1.64409
1.65641
1.66038
1.65837
1.65122
1.63761
1.61534
1.58238
1.53695
1.47766
1.40391
1.31544
1.21141
1.08944
0.947399
0.790562
0.769678
6.51427
6.07323
5.58393
5.03454
4.41695
3.73278
3.01693
2.36543
1.89903
1.65714
1.57777
1.57785
1.60354
1.62978
1.6493
1.66093
1.66507
1.66233
1.65183
1.63196
1.60118
1.5581
1.50149
1.43017
1.34317
1.23866
1.1133
0.963667
0.801518
0.836193
7.1138
6.67204
6.18062
5.6291
5.01034
4.32373
3.58833
2.87233
2.29011
1.9226
1.75205
1.70346
1.712
1.74051
1.77101
1.79423
1.80655
1.8079
1.79735
1.77423
1.73819
1.68903
1.62625
1.54854
1.45397
1.33966
1.20021
1.03025
0.848264
0.946845
7.93772
7.50774
7.02799
6.49353
5.90083
5.24714
4.53741
3.80963
3.15385
2.6754
2.41017
2.30969
2.30538
2.34848
2.40354
2.44669
2.46699
2.46436
2.43786
2.38941
2.32202
2.2387
2.14118
2.02769
1.89341
1.73527
1.54528
1.31136
1.06075
1.22154
9.72465
9.34466
8.9497
8.53899
8.10202
7.62468
7.08599
6.49099
5.8826
5.37977
5.07578
4.9617
4.9779
5.07479
5.18064
5.2503
5.26091
5.22032
5.13143
5.00059
4.83849
4.65417
4.45496
4.23454
3.965
3.66368
3.3171
2.89439
2.42515
2.57503
17.408
17.2574
17.3039
17.3446
17.3379
17.2628
17.0904
16.8222
16.3828
15.9551
15.6536
15.4841
15.4313
15.514
15.6053
15.6657
15.6365
15.5987
15.5411
15.4825
15.4191
15.3659
15.3192
15.2553
14.9369
14.6096
14.1956
13.6138
12.8602
12.7035
6.39058
8.2211
9.14786
9.67753
9.88387
9.83021
9.57458
9.17219
8.66314
8.08309
7.45699
6.81523
6.17258
5.56032
4.99139
4.48883
4.05901
3.72431
3.47976
3.28654
3.06492
2.7499
2.31977
1.80375
1.26828
0.878847
0.170304
0.138538
0.133164
0.600256
4.01918
4.66845
5.08865
5.32752
5.41058
5.35663
5.19113
4.94552
4.64651
4.31483
3.96722
3.61816
3.27965
2.96382
2.68148
2.44236
2.25189
2.1196
2.047
2.00557
1.94053
1.80685
1.59096
1.30783
0.989654
0.678957
0.369612
0.249552
0.29624
0.30529
3.54905
4.00219
4.28742
4.44455
4.49638
4.45376
4.32915
4.14082
3.90679
3.64368
3.36562
3.08502
2.81211
2.5584
2.33343
2.14823
2.00702
1.91694
1.87747
1.86362
1.8283
1.73306
1.56216
1.32478
1.05035
0.767702
0.499035
0.320257
0.30284
0.286096
3.26253
3.63222
3.87002
4.00465
4.05676
4.03551
3.94612
3.7998
3.60985
3.39025
3.15344
2.91109
2.67241
2.45041
2.25439
2.09591
1.97826
1.90777
1.88018
1.87259
1.84391
1.76026
1.60738
1.39297
1.13866
0.868791
0.6065
0.395038
0.297353
0.262309
2.99108
3.29334
3.51541
3.65382
3.72236
3.72919
3.67457
3.56589
3.41384
3.23075
3.02771
2.81578
2.60461
2.40754
2.23388
2.09569
1.99658
1.94013
1.91947
1.91209
1.88221
1.80142
1.65819
1.45776
1.21829
0.959862
0.70283
0.476117
0.336236
0.27273
2.68851
2.93913
3.16197
3.31723
3.41155
3.4492
3.42863
3.35529
3.23838
3.08924
2.91751
2.73404
2.54829
2.37428
2.22135
2.10237
2.01992
1.97586
1.96029
1.95102
1.91719
1.83575
1.69785
1.50791
1.28162
1.03567
0.786924
0.557109
0.398333
0.313394
2.35055
2.57019
2.80127
2.98043
3.10475
3.17358
3.1824
3.14245
3.05967
2.94416
2.80291
2.64762
2.48664
2.33511
2.20237
2.10173
2.03556
2.00313
1.99169
1.97991
1.9413
1.85859
1.72364
1.54238
1.32862
1.09585
0.858577
0.633812
0.468653
0.372438
1.98912
2.19265
2.43878
2.64499
2.80021
2.89664
2.93159
2.92362
2.87341
2.789
2.67821
2.55143
2.4154
2.28572
2.17274
2.09009
2.03929
2.0177
2.0097
1.99561
1.95264
1.86677
1.73479
1.56234
1.36098
1.14185
0.91763
0.703794
0.539827
0.434347
1.63326
1.82703
2.08819
2.3193
2.50276
2.62002
2.68242
2.7047
2.68563
2.63032
2.54716
2.44584
2.3344
2.22578
2.13183
2.06635
2.02991
2.01779
2.0129
1.99593
1.94872
1.8613
1.73214
1.56879
1.38048
1.17533
0.965092
0.765582
0.606946
0.494958
1.36648
1.53592
1.78331
2.02065
2.22263
2.35508
2.44301
2.49123
2.49979
2.47135
2.4134
2.33491
2.24519
2.15657
2.08049
2.03098
2.00763
2.00373
2.00141
1.98297
1.93376
1.84557
1.72016
1.56492
1.38921
1.19811
1.00276
0.818819
0.667907
0.551966
1.18511
1.31984
1.54539
1.78068
1.97788
2.11472
2.2206
2.28869
2.31926
2.31358
2.27713
2.21946
2.14971
2.0798
2.02011
1.98514
1.97291
1.97592
1.9758
1.95662
1.90658
1.8206
1.69999
1.55361
1.38855
1.21175
1.03356
0.864172
0.721794
0.604325
1.06988
1.15556
1.35287
1.58228
1.77944
1.91882
2.02636
2.10358
2.14855
2.15964
2.14166
2.10228
2.05032
1.99726
1.95233
1.93005
1.92689
1.93542
1.9371
1.91795
1.86861
1.78624
1.67256
1.53569
1.38176
1.21843
1.05733
0.902201
0.768297
0.652032
1.0151
1.03797
1.19504
1.40978
1.60877
1.75814
1.86822
1.94469
1.99299
2.01436
2.01056
1.98625
1.94945
1.9109
1.87891
1.86709
1.87104
1.88358
1.88669
1.86831
1.82112
1.74363
1.63885
1.51187
1.36961
1.2214
1.07562
0.933797
0.807941
0.69396
1.04167
0.978425
1.07315
1.25585
1.45278
1.61772
1.73649
1.8138
1.86031
1.8834
1.88762
1.87436
1.8496
1.8229
1.80162
1.79789
1.80704
1.82213
1.82632
1.80937
1.76552
1.69413
1.59871
1.4828
1.35324
1.22066
1.08924
0.95976
0.841351
0.729691
1.1505
1.00823
1.01478
1.13982
1.31172
1.48796
1.6202
1.70211
1.74877
1.77136
1.77725
1.7698
1.75335
1.73547
1.7224
1.72437
1.7368
1.75313
1.7581
1.7431
1.70352
1.63917
1.55344
1.44977
1.33539
1.21741
1.09901
0.980796
0.869108
0.75976
1.34537
1.13931
1.04064
1.0828
1.21039
1.37124
1.51241
1.60282
1.65302
1.67639
1.68251
1.676
1.66346
1.651
1.6434
1.64873
1.6626
1.67898
1.68443
1.67169
1.637
1.58048
1.50506
1.41554
1.31631
1.21206
1.10547
0.997442
0.891695
0.784636
1.6235
1.38022
1.18937
1.11136
1.1623
1.27845
1.4123
1.51161
1.5685
1.59479
1.60195
1.59544
1.58305
1.57214
1.5671
1.57351
1.58713
1.60254
1.60813
1.59774
1.56836
1.5204
1.45667
1.38166
1.29676
1.20519
1.10914
1.01021
0.909541
0.804541
1.97784
1.71869
1.46874
1.27331
1.19832
1.23714
1.33308
1.43019
1.49299
1.52383
1.53322
1.52748
1.51462
1.50201
1.49654
1.50188
1.51373
1.52729
1.53267
1.52477
1.50108
1.46301
1.41143
1.34984
1.27793
1.19765
1.11071
1.01971
0.923132
0.819775
2.4002
2.13558
1.85763
1.57749
1.36765
1.28286
1.29964
1.36849
1.42876
1.46282
1.475
1.4709
1.4584
1.44394
1.436
1.4381
1.44702
1.4581
1.46309
1.45836
1.44138
1.41212
1.37177
1.32213
1.26148
1.19071
1.11123
1.02677
0.933131
0.83089
2.88453
2.61719
2.32653
1.99885
1.68022
1.45249
1.35318
1.34893
1.38545
1.41501
1.42819
1.42591
1.4147
1.39994
1.39022
1.38913
1.39484
1.40342
1.40848
1.40596
1.39398
1.3725
1.34228
1.30216
1.24987
1.18621
1.11227
1.03257
0.940281
0.837911
3.42761
3.15736
2.85748
2.50295
2.11292
1.75771
1.51743
1.40298
1.38048
1.38979
1.39778
1.39589
1.38676
1.37387
1.36524
1.36313
1.36684
1.37342
1.37762
1.37603
1.36785
1.35272
1.32933
1.29434
1.24635
1.18659
1.11634
1.03892
0.945689
0.84199
4.03462
3.76145
3.45016
3.0737
2.6362
2.18512
1.80833
1.56051
1.44406
1.40566
1.39689
1.39174
1.3855
1.37787
1.375
1.37681
1.38193
1.38728
1.39018
1.38841
1.38142
1.36881
1.34746
1.31416
1.26705
1.20572
1.132
1.05063
0.951935
0.845187
4.72945
4.45188
4.12515
3.72376
3.24723
2.72615
2.23594
1.85405
1.61755
1.50309
1.4587
1.44482
1.44301
1.44679
1.45899
1.47373
1.48643
1.49411
1.4953
1.48958
1.47757
1.45899
1.4301
1.38879
1.33292
1.26202
1.17576
1.07885
0.964526
0.85206
5.57541
5.29146
4.94561
4.51552
4.00205
3.42745
2.85063
2.34852
1.9854
1.77456
1.67688
1.64725
1.65703
1.688
1.73638
1.78328
1.81568
1.83083
1.82754
1.80649
1.77179
1.72438
1.66474
1.59187
1.5041
1.40087
1.2809
1.14757
0.99677
0.869672
6.72773
6.44033
6.07868
5.62582
5.0873
4.48287
3.85506
3.26514
2.79622
2.49191
2.34033
2.30464
2.35617
2.46236
2.60514
2.7338
2.81299
2.8398
2.81233
2.73411
2.61732
2.47384
2.31315
2.13989
1.95462
1.75722
1.54476
1.32072
1.08484
0.915004
8.58632
8.31454
7.96666
7.53382
7.02922
6.47284
5.89054
5.31894
4.84474
4.53438
4.4112
4.4684
4.69239
5.03567
5.44548
5.78844
5.97389
6.00277
5.86574
5.57969
5.18375
4.72258
4.23491
3.74252
3.25428
2.77236
2.29084
1.81036
1.34697
1.05164
12.2519
12.0677
11.8367
11.5623
11.2761
11.0107
10.7667
10.5481
10.4117
10.4319
10.6837
11.206
11.9936
12.9769
14.0126
14.8027
15.175
15.1402
14.6679
13.8086
12.6597
11.3434
9.96525
8.58797
7.24239
5.94069
4.67503
3.43353
2.2828
1.63679
20.6675
20.6599
20.7308
20.8751
21.1785
21.7144
22.4134
23.148
23.9331
24.8448
26.025
27.5442
29.3429
31.2912
33.0832
34.3099
34.809
34.5681
33.5288
31.7858
29.4864
26.8367
24.0065
21.0915
18.1294
15.1571
12.169
9.10314
6.13976
4.68026
35.97
36.141
36.8692
37.9871
39.4568
41.3117
43.0923
44.7253
46.2577
47.7573
49.5579
51.5912
53.6287
55.5062
56.7762
57.262
57.1263
56.2683
54.7228
52.5899
50.023
47.1949
44.1414
40.8921
37.353
33.5241
29.3336
24.5937
19.3814
16.9225
43.5586
43.7479
45.3566
47.4776
49.3759
50.7343
51.5851
52.1993
52.8303
53.6926
54.9164
56.09
56.8692
57.2165
56.6279
55.4063
54.2335
52.8342
51.3405
49.8215
48.4315
47.22
46.2109
45.2586
44.2164
43.0848
41.8839
40.6178
38.7519
37.1951
9.74543
12.3885
13.4901
14.1847
14.4668
14.3879
14.0221
13.4444
12.7111
11.8729
10.9621
10.0246
9.0779
8.17419
7.33449
6.60375
6.00016
5.61369
5.47724
5.4547
5.2968
4.84708
4.09134
3.12521
2.10221
1.18096
0.740662
0.143718
0.571582
0.607429
5.69415
6.42628
6.79452
7.04829
7.1447
7.08174
6.88604
6.58801
6.2184
5.8007
5.3565
4.9031
4.45805
4.03525
3.65674
3.33853
3.10409
3.00033
3.05789
3.18452
3.21722
3.0604
2.71057
2.22504
1.66383
1.09051
0.606273
0.30474
0.340227
0.29802
5.14595
5.58781
5.83145
5.961
5.98067
5.89604
5.72263
5.47729
5.17719
4.83836
4.47781
4.11003
3.74982
3.41065
3.10995
2.86585
2.69638
2.63934
2.71701
2.8544
2.91776
2.82459
2.57411
2.1878
1.71982
1.22478
0.762557
0.420327
0.341543
0.289272
4.872
5.189
5.38836
5.49011
5.50045
5.42599
5.27801
5.06841
4.8093
4.51345
4.19551
3.8689
3.54718
3.2459
2.98179
2.77247
2.63335
2.59745
2.67336
2.79544
2.85536
2.78296
2.56533
2.22869
1.81254
1.35761
0.911755
0.537085
0.357956
0.280178
4.6088
4.82762
5.00342
5.10819
5.13619
5.09047
4.97572
4.80198
4.57966
4.32041
4.03753
3.74354
3.45297
3.18166
2.94619
2.76528
2.652
2.63337
2.7045
2.80587
2.84847
2.77485
2.57507
2.26903
1.88878
1.46677
1.04113
0.654095
0.415839
0.298355
4.28552
4.42126
4.58787
4.71077
4.77072
4.76471
4.68982
4.55505
4.37043
4.14768
3.89947
3.6379
3.37753
3.13539
2.92803
2.77528
2.68797
2.68597
2.7519
2.83116
2.85253
2.76897
2.57545
2.29184
1.94084
1.54939
1.14789
0.766764
0.498085
0.34917
3.9158
3.97947
4.13624
4.28133
4.37945
4.41624
4.38609
4.29307
4.14809
3.96356
3.75147
3.524
3.29477
3.08285
2.90483
2.78143
2.72128
2.73502
2.79579
2.8536
2.85144
2.75615
2.56482
2.29497
1.97036
1.6081
1.23312
0.869607
0.589504
0.418661
3.50521
3.51261
3.65928
3.82606
3.96287
4.04251
4.05759
4.00858
3.90516
3.75994
3.5852
3.39335
3.19728
3.01652
2.86916
2.77635
2.74382
2.77204
2.82766
2.86564
2.84171
2.73378
2.54292
2.28466
1.98108
1.64641
1.29872
0.958447
0.680252
0.49479
3.06202
3.03165
3.17286
3.35985
3.53204
3.65211
3.70906
3.70411
3.64281
3.53753
3.40102
3.24524
3.08377
2.935
2.8191
2.75751
2.75173
2.79281
2.84324
2.86336
2.82025
2.70132
2.51068
2.26345
1.97713
1.66792
1.34732
1.03196
0.763502
0.570125
2.59739
2.55287
2.69683
2.90337
3.10415
3.2582
3.3527
3.38693
3.36663
3.30067
3.20201
3.08219
2.95539
2.83944
2.75492
2.72418
2.74333
2.79557
2.84111
2.84453
2.78528
2.65865
2.46929
2.23305
1.96354
1.67622
1.38387
1.09127
0.835545
0.64058
2.20718
2.14203
2.27655
2.48648
2.70211
2.87804
3.00226
3.0688
3.08449
3.05548
2.99296
2.90794
2.81484
2.73159
2.67784
2.67648
2.71761
2.77813
2.81837
2.8081
2.7366
2.60498
2.41973
2.19484
1.94192
1.67448
1.40733
1.13689
0.895269
0.702488
1.89764
1.8013
1.91491
2.11889
2.3409
2.5319
2.67431
2.76263
2.80625
2.80915
2.77945
2.7269
2.66555
2.61351
2.58938
2.61472
2.67413
2.74053
2.77488
2.75403
2.67446
2.54125
2.36319
2.15013
1.91418
1.66885
1.42117
1.17049
0.942912
0.754945
1.6713
1.53378
1.61441
1.80145
2.02138
2.22088
2.37626
2.48176
2.54402
2.56962
2.56753
2.54371
2.51126
2.48802
2.49076
2.53939
2.61316
2.6828
2.71136
2.68314
2.59958
2.46831
2.29947
2.10012
1.88274
1.65737
1.42657
1.19369
0.979429
0.797654
1.52994
1.34833
1.38152
1.53675
1.74373
1.9451
2.1094
2.22726
2.30409
2.34663
2.36352
2.36328
2.35583
2.35808
2.38342
2.45138
2.53537
2.60604
2.62953
2.597
2.5133
2.38741
2.22969
2.04671
1.8503
1.64121
1.42496
1.20807
1.00616
0.831076
1.49892
1.26818
1.23217
1.33517
1.51255
1.70568
1.87372
2.00024
2.08792
2.14342
2.17527
2.19087
2.20334
2.22603
2.26982
2.3525
2.44274
2.51272
2.53238
2.49854
2.41811
2.30083
2.15686
1.99415
1.81526
1.62144
1.41877
1.21546
1.02458
0.856192
1.56561
1.30981
1.19211
1.21693
1.34145
1.50882
1.67108
1.8015
1.89664
1.96163
2.00476
2.03246
2.05813
2.0957
2.15326
2.24581
2.3388
2.40694
2.42434
2.39194
2.31792
2.2127
2.08698
1.94308
1.77932
1.59923
1.40882
1.21676
1.03595
0.874072
1.73288
1.46189
1.27864
1.20718
1.25363
1.36906
1.50846
1.63399
1.73187
1.80282
1.85394
1.89089
1.92595
1.97185
2.03856
2.13634
2.22922
2.29497
2.31196
2.28368
2.21933
2.13163
2.02337
1.89474
1.74433
1.57611
1.39633
1.2141
1.0417
0.885728
2.0233
1.73949
1.50624
1.34184
1.27744
1.31179
1.40132
1.50566
1.59758
1.66964
1.7254
1.76896
1.81154
1.86155
1.93322
2.0323
2.12314
2.18666
2.20574
2.18528
2.13614
2.06295
1.96853
1.85257
1.71283
1.55404
1.38277
1.20885
1.0429
0.892141
2.43602
2.13812
1.86836
1.62696
1.44937
1.36766
1.37321
1.43228
1.50238
1.56764
1.62367
1.67145
1.72056
1.77554
1.85043
1.9478
2.03629
2.09869
2.12498
2.11432
2.07564
2.01427
1.93023
1.82157
1.68847
1.5357
1.37015
1.20243
1.04137
0.894623
2.96483
2.64967
2.34881
2.0486
1.77244
1.56552
1.45668
1.43233
1.46189
1.50818
1.5579
1.60763
1.66385
1.72704
1.80986
1.90871
1.99833
2.06185
2.09192
2.08857
2.05672
2.00016
1.91746
1.80852
1.67633
1.52485
1.36148
1.19696
1.03869
0.894172
3.61086
3.27288
2.93882
2.58873
2.23385
1.91308
1.677
1.54542
1.50207
1.50969
1.54703
1.59782
1.66274
1.74196
1.84236
1.95304
2.04888
2.11482
2.14696
2.14621
2.11467
2.05485
1.96598
1.8467
1.69848
1.53238
1.36149
1.19513
1.0366
0.892345
4.39028
4.02331
3.6503
3.25062
2.82937
2.41458
2.05929
1.80822
1.67096
1.6229
1.63541
1.687
1.77009
1.87808
2.01614
2.15724
2.26993
2.34353
2.37607
2.369
2.32261
2.24028
2.12393
1.97503
1.79763
1.60028
1.39815
1.21086
1.04072
0.891269
5.35217
4.95088
4.53339
4.08194
3.601
3.11115
2.65857
2.2971
2.05953
1.94496
1.9279
1.9877
2.10981
2.2782
2.49669
2.70595
2.85954
2.94954
2.97773
2.9429
2.84687
2.69911
2.50919
2.2852
2.03634
1.77444
1.51327
1.27454
1.06649
0.898232
6.61678
6.17937
5.71839
5.22004
4.69172
4.15148
3.6375
3.2004
2.88639
2.72043
2.69298
2.79657
3.01518
3.32276
3.71891
4.0787
4.32043
4.44081
4.4444
4.32224
4.09025
3.77433
3.40374
3.00185
2.58771
2.17865
1.79028
1.44303
1.15116
0.932766
8.46454
8.00452
7.52019
7.00352
6.46726
5.93193
5.43101
5.00626
4.70703
4.57796
4.63782
4.90781
5.37791
6.01328
6.79768
7.46539
7.87412
8.03539
7.9405
7.58406
7.01345
6.29383
5.49928
4.68735
3.8953
3.1498
2.46799
1.87218
1.38215
1.0465
11.5737
11.1366
10.6881
10.2329
9.79273
9.39712
9.0831
8.88154
8.82924
8.99011
9.41175
10.1456
11.1913
12.4952
13.985
15.1528
15.7905
15.9564
15.6017
14.7454
13.4889
11.9615
10.3145
8.66196
7.07353
5.59381
4.24341
3.04734
2.06481
1.43628
17.4686
17.1925
16.8816
16.642
16.5001
16.5085
16.7116
17.1076
17.7059
18.5628
19.7537
21.3477
23.3311
25.5943
27.927
29.5416
30.2869
30.2937
29.4744
27.8877
25.6985
23.0795
20.2305
17.3107
14.4198
11.6279
8.97801
6.4772
4.30474
3.00034
28.6237
28.635
28.7549
28.9573
29.378
30.1298
31.1537
32.3931
33.8327
35.5399
37.605
40.0756
42.8684
45.7069
48.1464
49.2955
49.515
48.8633
47.4358
45.3877
42.7408
39.6487
36.2301
32.5435
28.6004
24.4398
20.1886
15.7614
11.5089
9.12956
43.8473
43.8602
44.7885
46.2141
47.7875
49.3083
50.7842
52.2586
53.8333
55.6343
57.7458
60.0821
62.3395
63.8658
64.2182
62.8974
61.4363
59.6297
57.7438
55.7415
53.7686
51.8649
49.9602
47.8807
45.4118
42.3563
38.4652
33.8139
28.5572
25.7375
48.0933
48.7111
50.4667
52.6858
54.7358
56.296
57.3228
58.0741
58.8516
59.8435
61.0487
62.1268
62.6757
62.3945
60.7998
57.8534
55.4183
53.0603
51.104
49.4901
48.3694
47.7114
47.4242
47.2794
47.0508
46.6355
46.0541
45.3071
44.1083
43.0537
13.3734
16.7896
18.0297
18.6788
18.9518
18.8228
18.3469
17.6057
16.6616
15.577
14.3863
13.1491
11.8807
10.6598
9.51621
8.5341
7.78234
7.56955
8.00449
8.61757
8.74166
8.13217
6.89196
5.27095
3.53153
1.94107
0.745499
0.148818
0.132891
0.581602
7.57308
8.40848
8.75788
8.93433
8.99191
8.89554
8.6486
8.28034
7.82266
7.30212
6.7444
6.16733
5.59651
5.04619
4.5546
4.14283
3.87755
3.91607
4.34091
4.85552
5.06865
4.85588
4.30272
3.54243
2.67429
1.7523
0.917862
0.369745
0.301965
0.27191
6.87979
7.31105
7.51592
7.60065
7.57893
7.45098
7.22381
6.91018
6.52847
6.09631
5.63387
5.15578
4.6844
4.23542
3.83959
3.52018
3.32919
3.39461
3.77116
4.22332
4.44528
4.32705
3.93275
3.36386
2.6585
1.88745
1.14005
0.544136
0.345281
0.272008
6.61076
6.85655
7.01927
7.09443
7.07285
6.95734
6.75496
6.47485
6.13173
5.7403
5.3188
4.88063
4.44822
4.04038
3.68665
3.40988
3.25746
3.34126
3.67378
4.05719
4.25357
4.15991
3.83124
3.33129
2.71401
2.02349
1.32761
0.704501
0.399358
0.281674
6.35265
6.47347
6.6173
6.70835
6.7179
6.63807
6.47063
6.22494
5.91587
5.55779
5.16794
4.76052
4.35929
3.98274
3.6621
3.42221
3.30857
3.41305
3.71191
4.0298
4.17893
4.08056
3.77462
3.31461
2.75629
2.12695
1.47777
0.858889
0.48427
0.31456
6.01795
6.04525
6.17771
6.29759
6.35143
6.32105
6.19821
5.99297
5.72169
5.39944
5.04352
4.66782
4.29837
3.95392
3.66733
3.46692
3.39678
3.52476
3.79311
4.04956
4.14328
4.02536
3.72421
3.2897
2.77208
2.19607
1.59388
1.00166
0.589768
0.375261
5.60817
5.55817
5.68048
5.83055
5.93343
5.95689
5.88633
5.7281
5.50069
5.21959
4.90336
4.56305
4.22831
3.91998
3.67188
3.51601
3.4948
3.64599
3.88544
4.07999
4.1192
3.97348
3.66975
3.25282
2.76501
2.23596
1.68036
1.12696
0.70321
0.454419
5.14061
5.02105
5.13333
5.30974
5.46028
5.5364
5.52283
5.41747
5.23897
5.00407
4.73271
4.43421
4.13816
3.86957
3.66531
3.55989
3.59038
3.7622
3.97213
4.10829
4.0936
3.91765
3.60851
3.20507
2.74338
2.25266
1.74246
1.23204
0.813906
0.542545
4.62836
4.44518
4.5511
4.74959
4.94224
5.06886
5.11111
5.06226
4.93679
4.75236
4.52979
4.27805
4.02504
3.80031
3.64467
3.59457
3.67666
3.86386
4.04228
4.12374
4.05899
3.85506
3.5402
3.14848
2.71045
2.25163
1.7887
1.31709
0.91386
0.630351
4.08419
3.85388
3.95395
4.17106
4.39783
4.56969
4.66397
4.67078
4.60012
4.46859
4.29774
4.09622
3.89049
3.71325
3.60986
3.61805
3.74827
3.94338
4.08925
4.11921
4.01059
3.7835
3.46516
3.08527
2.67
2.24354
1.81667
1.38169
0.998414
0.711152
3.53702
3.29211
3.38124
3.60249
3.85176
4.05954
4.20011
4.25565
4.23912
4.16064
4.04258
3.89301
3.73695
3.61092
3.56186
3.62889
3.7998
3.99417
4.1061
4.08911
3.94537
3.70196
3.38414
3.01781
2.62566
2.22964
1.82904
1.42644
1.06497
0.781239
3.0668
2.79349
2.8603
3.07315
3.33193
3.56442
3.74007
3.83559
3.86641
3.83856
3.77184
3.67405
3.56871
3.49583
3.50178
3.62498
3.82551
4.011
4.08851
4.03234
3.86258
3.61058
3.29863
2.94888
2.58273
2.20761
1.82732
1.45321
1.1137
0.838577
2.67796
2.36944
2.40369
2.59594
2.85196
3.09841
3.2982
3.4294
3.49842
3.51349
3.49392
3.44547
3.39054
3.37145
3.42957
3.60365
3.82474
3.99149
4.03501
3.94924
3.76342
3.51105
3.21128
2.88277
2.53904
2.1796
1.81697
1.46522
1.14626
0.882394
2.37052
2.03318
2.02433
2.18296
2.42261
2.67136
2.88598
3.04498
3.14619
3.19817
3.21764
3.21369
3.20788
3.2392
3.34716
3.56258
3.78837
3.93494
3.94831
3.8429
3.65174
3.40753
3.12713
2.82266
2.49292
2.14694
1.79921
1.46424
1.16454
0.913275
2.16775
1.80666
1.73921
1.84999
2.05666
2.29345
2.51271
2.68925
2.81712
2.90028
2.95359
2.9857
3.02512
3.10299
3.25647
3.50135
3.72087
3.84526
3.8357
3.72115
3.53565
3.30879
3.055
2.7653
2.44617
2.11095
1.77565
1.45556
1.17111
0.932714
2.08694
1.71868
1.57492
1.61957
1.77208
1.97822
2.18862
2.37168
2.51723
2.62565
2.70703
2.77071
2.84902
2.96876
3.16146
3.42336
3.62925
3.73254
3.70976
3.59789
3.43078
3.23053
2.99234
2.7118
2.40032
2.07308
1.74783
1.44058
1.16863
0.942528
2.13685
1.77515
1.57107
1.51906
1.59246
1.74455
1.92678
2.10295
2.25579
2.3813
2.48596
2.57781
2.68835
2.84512
3.06987
3.33848
3.52799
3.61475
3.59169
3.49795
3.35781
3.17195
2.9409
2.66516
2.35767
2.03548
1.71774
1.42116
1.16046
0.944268
2.31562
1.95747
1.70664
1.56845
1.54366
1.61742
1.74588
1.8964
2.04379
2.17703
2.2995
2.41627
2.5581
2.74505
2.9963
3.26641
3.44219
3.52288
3.51901
3.44862
3.31984
3.13585
2.90677
2.62988
2.32183
2.00098
1.68784
1.3995
1.14822
0.940795
2.65954
2.29371
2.00096
1.78216
1.65168
1.61478
1.6697
1.77064
1.8957
2.02597
2.1605
2.29947
2.47621
2.69269
2.96789
3.24266
3.41677
3.51269
3.52936
3.465
3.32665
3.14585
2.89974
2.61281
2.29844
1.97369
1.66146
1.37823
1.13404
0.933993
3.17956
2.7879
2.4514
2.16031
1.92827
1.77781
1.72282
1.74839
1.83378
1.94886
2.09038
2.25391
2.46653
2.7275
3.04231
3.33325
3.53098
3.64068
3.66474
3.58771
3.45276
3.25846
2.98059
2.6459
2.29743
1.95975
1.64342
1.36069
1.12035
0.925405
3.87284
3.44352
3.05825
2.70042
2.37798
2.11603
1.94476
1.87388
1.89367
1.98249
2.12989
2.32444
2.58999
2.91435
3.30042
3.64193
3.87797
4.00199
4.0099
3.91967
3.77858
3.52881
3.18902
2.7921
2.37708
1.9858
1.64199
1.3515
1.11042
0.916873
4.76106
4.28456
3.84468
3.42241
3.02133
2.66232
2.38134
2.20897
2.15396
2.20636
2.36299
2.60466
2.95242
3.38423
3.90037
4.34349
4.64913
4.77357
4.76631
4.67104
4.45677
4.08693
3.62149
3.11146
2.59909
2.12134
1.70527
1.37178
1.111
0.912147
5.91048
5.38146
4.88479
4.40232
3.93628
3.50322
3.1374
2.88054
2.76262
2.78868
2.97679
3.30797
3.80191
4.42086
5.17565
5.80239
6.22761
6.35404
6.35521
6.20536
5.79175
5.18745
4.48405
3.76045
3.06907
2.44529
1.90757
1.47894
1.15466
0.925542
7.47961
6.90235
6.35762
5.83096
5.32611
4.85813
4.45857
4.17265
4.04456
4.10512
4.39631
4.91457
5.68319
6.63844
7.81029
8.73164
9.35539
9.53655
9.54277
9.13277
8.35156
7.32263
6.19427
5.08104
4.05377
3.14949
2.38206
1.76604
1.30888
0.999377
9.83
9.22459
8.66144
8.13251
7.64624
7.22025
6.88769
6.696
6.6934
6.94685
7.50981
8.40695
9.67099
11.1934
13.0011
14.3171
15.2024
15.513
15.2818
14.4446
13.0744
11.3618
9.54348
7.77877
6.15241
4.72072
3.49168
2.4835
1.72509
1.23292
13.6774
13.1479
12.6221
12.1724
11.8146
11.5707
11.4822
11.6019
11.9848
12.6938
13.7932
15.3299
17.3482
19.6484
22.227
23.8403
24.8309
25.0359
24.4203
23.0493
20.9931
18.4487
15.7511
13.0937
10.5559
8.24246
6.15459
4.33485
2.90189
2.00824
20.2882
19.9667
19.6795
19.4258
19.3536
19.4789
19.8731
20.5621
21.5721
22.9615
24.7805
27.0864
29.9276
32.9161
35.9535
36.8531
36.9332
36.2476
35.0994
33.4384
31.3166
28.772
25.7483
22.4119
18.9397
15.5724
12.2457
9.04282
6.31659
4.68161
30.865
30.7351
30.8916
31.2653
31.6971
32.326
33.2703
34.5129
36.0637
37.9796
40.2896
43.0277
46.1731
48.9698
50.7558
49.0509
47.535
45.781
44.187
42.5239
40.8118
38.9598
36.8977
34.5005
31.6312
28.0168
23.8962
19.3567
15.0888
12.687
42.5937
42.7393
43.6196
44.8721
46.2107
47.5032
48.6976
49.9536
51.3985
53.1045
55.0572
57.1685
59.3173
60.1042
59.4098
54.8777
51.7798
49.0869
47.1703
45.7045
44.7625
44.1644
43.7192
43.1565
42.1619
40.547
38.1642
34.9499
31.0521
28.8109
44.3508
45.3908
47.183
49.2677
51.2051
52.7664
53.9192
54.8426
55.7689
56.8444
58.0094
58.9801
59.4279
58.3751
55.4024
49.3415
45.5289
42.5055
40.5447
39.2787
38.801
39.0301
39.7827
40.7062
41.5068
42.0337
42.2352
42.1389
41.6871
41.2125
17.6324
21.7902
23.0825
23.5658
23.6944
23.4311
22.7875
21.8405
20.6523
19.2888
17.7771
16.1876
14.5314
12.9211
11.4038
10.1286
9.29857
9.75692
11.6873
13.6618
14.2298
13.2555
11.2374
8.70061
5.9988
3.45156
1.4531
0.658724
0.129003
0.533107
9.71696
10.5962
10.8889
10.9579
10.9319
10.7762
10.4677
10.0235
9.4747
8.84537
8.16414
7.4436
6.7216
6.00694
5.36939
4.8274
4.54858
4.95464
6.16281
7.35088
7.76153
7.37871
6.51101
5.40955