/*--------------------------------*- C++ -*----------------------------------*\
| =========                 |                                                 |
| \\      /  F ield         | OpenFOAM: The Open Source CFD Toolbox           |
|  \\    /   O peration     | Version:  5.0                                   |
|   \\  /    A nd           | Web:      www.OpenFOAM.org                      |
|    \\/     M anipulation  |                                                 |
\*---------------------------------------------------------------------------*/
FoamFile
{
    version     2.0;
    format      ascii;
    class       volScalarField;
    location    "2000/air";
    object      k;
}
// * * * * * * * * * * * * * * * * * * * * * * * * * * * * * * * * * * * * * //

dimensions      [0 2 -2 0 0 0 0];

internalField   nonuniform List<scalar> 
243000
(
0.0761034
0.084771
0.0875611
0.0882205
0.0871475
0.0848546
0.0816527
0.0778166
0.0735694
0.0691253
0.0646474
0.0602668
0.0559966
0.0519156
0.0480565
0.0445168
0.0413551
0.0387131
0.0374987
0.0363835
0.0353903
0.033821
0.031786
0.0303791
0.0276446
0.0258906
0.0232737
0.0195341
0.02011
0.0217464
0.115024
0.128686
0.131608
0.130917
0.127973
0.123557
0.118202
0.112289
0.106071
0.0997629
0.093501
0.0873955
0.0814553
0.0758195
0.0705604
0.065782
0.0615164
0.057981
0.0552894
0.0532969
0.0514508
0.0493935
0.0466932
0.0432264
0.0387884
0.0340778
0.0289503
0.0236223
0.0233757
0.0301065
0.133912
0.148797
0.152981
0.152604
0.149468
0.144558
0.138517
0.131789
0.124672
0.117437
0.11024
0.103218
0.096405
0.0899818
0.0840422
0.0787048
0.0739892
0.0701204
0.067083
0.0647264
0.0625942
0.0602016
0.0570806
0.0529685
0.047851
0.0419016
0.0352369
0.0286124
0.0252104
0.0314326
0.142938
0.158865
0.164452
0.165194
0.16277
0.158274
0.152389
0.145603
0.13826
0.130673
0.123042
0.115556
0.10828
0.101433
0.0951379
0.0895343
0.0846314
0.080645
0.0774641
0.0748738
0.0724361
0.0696916
0.0661829
0.0616082
0.0559261
0.0492265
0.0416244
0.0341011
0.0292499
0.031529
0.144669
0.160719
0.168662
0.171134
0.169999
0.166483
0.161286
0.154943
0.147834
0.140317
0.132636
0.125031
0.117607
0.110624
0.104224
0.0985751
0.0936738
0.0897121
0.086492
0.0837388
0.0810223
0.0779368
0.0740696
0.0691283
0.063041
0.0558662
0.0477124
0.039573
0.0335224
0.0322267
0.141324
0.157515
0.167436
0.172009
0.172594
0.17041
0.166252
0.160688
0.154139
0.14701
0.139569
0.13211
0.124779
0.117884
0.111563
0.106036
0.101273
0.0974318
0.0942359
0.0913661
0.0884092
0.0850119
0.0808254
0.0755894
0.0692147
0.0617377
0.0532601
0.0446977
0.0377835
0.0337513
0.133966
0.150903
0.162636
0.169174
0.171621
0.171042
0.168088
0.163491
0.157756
0.151254
0.144277
0.137169
0.130116
0.123476
0.117376
0.112092
0.107567
0.103906
0.100776
0.0978284
0.0946723
0.0910051
0.0865449
0.0810741
0.0745006
0.066835
0.0581686
0.0493393
0.0418228
0.0362808
0.123543
0.141617
0.155016
0.163497
0.167861
0.168975
0.167499
0.164075
0.159183
0.153448
0.147111
0.140516
0.133887
0.127615
0.121849
0.116896
0.112676
0.109235
0.106199
0.103207
0.099895
0.0960078
0.0913224
0.0856708
0.0789655
0.0711912
0.0624404
0.0535042
0.0455774
0.0390595
0.111388
0.130485
0.145407
0.155706
0.161956
0.164773
0.164835
0.162721
0.158995
0.154089
0.148394
0.142419
0.136314
0.130501
0.125147
0.120582
0.116711
0.113509
0.110588
0.107585
0.104162
0.100106
0.0952491
0.0894662
0.0826823
0.0748755
0.0660574
0.0571157
0.0489007
0.0418442
0.100059
0.119165
0.134876
0.146536
0.154484
0.158956
0.160559
0.159834
0.157279
0.153368
0.148533
0.143133
0.137602
0.132306
0.127415
0.123273
0.119769
0.116819
0.114028
0.111042
0.107551
0.103381
0.0984061
0.0925411
0.0857376
0.0778995
0.0690351
0.0602138
0.0518333
0.0443903
0.0901317
0.108123
0.124429
0.137115
0.146136
0.152013
0.15507
0.155723
0.154387
0.151511
0.147526
0.142901
0.137961
0.133186
0.128785
0.125078
0.121942
0.119249
0.116597
0.113655
0.11014
0.105908
0.10087
0.0949793
0.0881704
0.0803149
0.0714883
0.0628531
0.0543982
0.0466291
0.0826995
0.0976055
0.113942
0.127591
0.137761
0.144665
0.148788
0.150684
0.150554
0.148735
0.145652
0.141776
0.137491
0.133294
0.129374
0.126097
0.123318
0.120879
0.118374
0.115499
0.112001
0.107758
0.102723
0.0968365
0.0900226
0.0821747
0.07361
0.0651333
0.056641
0.0486332
0.0791715
0.0884205
0.103542
0.117841
0.129176
0.137226
0.14236
0.145099
0.146016
0.145226
0.143055
0.13996
0.136336
0.132708
0.129283
0.126423
0.123985
0.121784
0.119432
0.116646
0.11321
0.109017
0.104004
0.0981357
0.0913419
0.0835337
0.0753521
0.0670719
0.0585812
0.0504106
0.0808734
0.0822207
0.0938542
0.10795
0.12028
0.129549
0.135805
0.139487
0.141143
0.141198
0.139887
0.137571
0.134611
0.131546
0.128604
0.126141
0.124006
0.12204
0.119851
0.117186
0.11383
0.10969
0.104726
0.0989137
0.0921721
0.0845808
0.0767614
0.0686919
0.0602332
0.0519705
0.088271
0.0811774
0.0863884
0.098437
0.11114
0.121553
0.129016
0.133743
0.136235
0.136958
0.136327
0.134729
0.132421
0.129903
0.127423
0.125333
0.123487
0.12173
0.119682
0.11711
0.113844
0.109793
0.104914
0.0991913
0.0925586
0.0853767
0.0778827
0.0700194
0.0616107
0.0533224
0.10032
0.0874533
0.0837116
0.0906695
0.102213
0.113301
0.121931
0.127786
0.131211
0.132676
0.132636
0.13158
0.129862
0.127864
0.125821
0.124076
0.122495
0.120932
0.11904
0.116599
0.113427
0.109472
0.104682
0.0990541
0.0926924
0.0859205
0.0787362
0.0710732
0.062725
0.0544632
0.115713
0.100439
0.0886882
0.0871363
0.0946979
0.105187
0.114617
0.121581
0.126015
0.1283
0.128909
0.128331
0.127051
0.125516
0.123873
0.122444
0.121104
0.119724
0.117985
0.115685
0.112653
0.108805
0.104127
0.0986378
0.09266
0.0862477
0.0793474
0.0718721
0.063588
0.0553938
0.132131
0.116938
0.101155
0.0907517
0.0907726
0.0982292
0.107419
0.1152
0.120629
0.123791
0.125103
0.125067
0.124161
0.122959
0.121657
0.12051
0.119391
0.118182
0.116593
0.114441
0.111561
0.10786
0.103327
0.0981623
0.0925095
0.086397
0.079745
0.072438
0.0642132
0.0561023
0.148743
0.134523
0.118041
0.102044
0.0930939
0.0942373
0.101162
0.108929
0.115121
0.119143
0.121197
0.121746
0.121273
0.120324
0.119266
0.118352
0.11743
0.11638
0.114941
0.11294
0.110225
0.106702
0.102453
0.0976182
0.0922587
0.0863922
0.0799563
0.0727945
0.0646196
0.0566566
0.165676
0.152274
0.136382
0.118489
0.10271
0.0953872
0.0972833
0.103408
0.109719
0.114419
0.117196
0.118352
0.118357
0.117718
0.116836
0.116062
0.115297
0.114393
0.113103
0.111259
0.108721
0.105479
0.101555
0.0970221
0.0919281
0.0862808
0.0800139
0.0729691
0.0648291
0.0570803
0.182743
0.169687
0.154648
0.136859
0.117797
0.10295
0.0973966
0.0996797
0.104893
0.109794
0.113151
0.114895
0.115392
0.115113
0.114457
0.113781
0.113093
0.112305
0.111157
0.109494
0.107222
0.104276
0.100652
0.0963979
0.0915469
0.0860948
0.0799621
0.072991
0.0648627
0.0574218
0.199766
0.187202
0.172686
0.155415
0.135462
0.115885
0.102775
0.0989835
0.101394
0.105611
0.1092
0.111425
0.112393
0.112499
0.112114
0.111587
0.111002
0.110301
0.109294
0.107824
0.105791
0.103119
0.0997773
0.0957866
0.0911605
0.0858799
0.0798533
0.0729175
0.0647814
0.0579029
0.216638
0.204376
0.190183
0.173381
0.153539
0.131851
0.112984
0.102314
0.100098
0.102396
0.105598
0.108056
0.109418
0.109899
0.109817
0.109484
0.109031
0.108437
0.107567
0.106277
0.104468
0.102051
0.098982
0.0952456
0.0908353
0.0857091
0.0797561
0.0728112
0.064655
0.059095
0.23332
0.221047
0.206967
0.190471
0.170993
0.148721
0.126453
0.109694
0.101796
0.100797
0.102754
0.105021
0.106604
0.107409
0.107638
0.107538
0.107249
0.106786
0.106056
0.104941
0.103338
0.101163
0.0983533
0.0948604
0.0906498
0.0856598
0.0797557
0.0727531
0.0645593
0.0609625
0.248822
0.236657
0.222757
0.206555
0.187504
0.165388
0.141608
0.120485
0.106911
0.101583
0.101295
0.102785
0.104308
0.105334
0.105861
0.106031
0.105946
0.10564
0.105058
0.104102
0.102679
0.100702
0.0980923
0.0947972
0.0907681
0.0859122
0.0800382
0.0729123
0.06462
0.0635724
0.263784
0.251744
0.238039
0.222165
0.203612
0.182014
0.15794
0.1343
0.116003
0.105916
0.102494
0.10249
0.103597
0.104724
0.105559
0.106055
0.106231
0.106114
0.105666
0.104816
0.103492
0.101625
0.0991457
0.0959775
0.0920408
0.0871969
0.0812027
0.0737436
0.0652195
0.0671999
0.279729
0.268029
0.254707
0.239326
0.221459
0.200746
0.177297
0.152859
0.131434
0.116957
0.10992
0.107868
0.108222
0.109418
0.110692
0.111657
0.112168
0.112223
0.111786
0.110824
0.109317
0.107244
0.104567
0.101206
0.0970382
0.0918772
0.0853765
0.0771017
0.067731
0.0730217
0.300929
0.289965
0.277482
0.263236
0.246972
0.228388
0.207312
0.184517
0.162688
0.145782
0.135968
0.132149
0.131976
0.13361
0.135688
0.137306
0.138064
0.137966
0.136975
0.135154
0.132599
0.129406
0.125618
0.121136
0.115723
0.109179
0.101046
0.0905573
0.0786257
0.0865323
0.344541
0.335508
0.32599
0.315944
0.305077
0.292981
0.279023
0.263186
0.246477
0.23222
0.223377
0.220004
0.220472
0.223316
0.226407
0.22843
0.228737
0.227559
0.224968
0.221128
0.216323
0.210792
0.204732
0.19792
0.189424
0.179695
0.168163
0.153537
0.13647
0.142184
0.507921
0.504984
0.505892
0.506687
0.506559
0.5051
0.501734
0.496476
0.487794
0.479264
0.473203
0.469774
0.468699
0.470368
0.47221
0.473428
0.472837
0.472076
0.470911
0.469726
0.468444
0.467364
0.466418
0.465117
0.458616
0.451895
0.443302
0.431088
0.415031
0.411746
0.11198
0.12914
0.135283
0.137128
0.135906
0.132486
0.127539
0.121619
0.115088
0.108243
0.101261
0.0943609
0.0876211
0.0812839
0.0754328
0.0702807
0.0659005
0.062565
0.0602842
0.058648
0.0567083
0.0535538
0.0486375
0.0419107
0.0338164
0.0264685
0.0239104
0.0208982
0.0214424
0.0231484
0.174869
0.20017
0.205646
0.203015
0.19592
0.186434
0.175766
0.164634
0.15344
0.142517
0.131996
0.122065
0.112706
0.104175
0.0965243
0.0899591
0.0843898
0.0802787
0.0776794
0.07621
0.0747793
0.0721861
0.0673862
0.0600046
0.0504453
0.0398455
0.0315639
0.0286026
0.0324095
0.0334582
0.207136
0.236558
0.24577
0.24499
0.238675
0.229107
0.217709
0.205353
0.192586
0.179888
0.167492
0.155683
0.144489
0.134284
0.1252
0.117496
0.111007
0.106209
0.102979
0.100842
0.0986836
0.0952783
0.089464
0.0807199
0.0693377
0.0562706
0.0434424
0.0344808
0.0351256
0.0356127
0.221328
0.252535
0.264228
0.26622
0.2622
0.254392
0.244133
0.232361
0.219712
0.206771
0.19387
0.181396
0.16946
0.158544
0.148893
0.140799
0.134044
0.129032
0.12541
0.122615
0.119588
0.115225
0.108419
0.0986088
0.0859917
0.0712983
0.0558611
0.0423532
0.0363264
0.0349063
0.222268
0.251501
0.267264
0.273378
0.272557
0.267416
0.259208
0.248987
0.237387
0.225126
0.212587
0.200256
0.188334
0.177405
0.167807
0.15986
0.153287
0.148375
0.144558
0.141207
0.137346
0.132056
0.124375
0.113788
0.100434
0.0848649
0.0680579
0.0518279
0.0413998
0.0366495
0.215967
0.242825
0.261147
0.270608
0.27348
0.271435
0.265694
0.257635
0.247622
0.236677
0.225096
0.213484
0.202125
0.19169
0.182577
0.175157
0.169075
0.164472
0.160599
0.156788
0.152186
0.146063
0.137654
0.126531
0.112793
0.0968577
0.0794863
0.0619449
0.0489969
0.0416693
0.203732
0.228549
0.24835
0.260964
0.267418
0.268848
0.26604
0.259981
0.25181
0.242752
0.232546
0.222092
0.211699
0.202137
0.193799
0.18718
0.181797
0.177636
0.173807
0.169634
0.164406
0.157577
0.148586
0.137124
0.123269
0.107317
0.0898937
0.0719697
0.0576958
0.0486664
0.186601
0.209044
0.230462
0.246224
0.256253
0.260858
0.260831
0.257526
0.251963
0.24448
0.235803
0.226888
0.217755
0.209312
0.201971
0.19633
0.191774
0.18814
0.184429
0.179998
0.174273
0.166887
0.157463
0.145831
0.13206
0.116338
0.0991985
0.0814771
0.066619
0.0560173
0.16449
0.185786
0.209037
0.227876
0.241378
0.248845
0.251758
0.251404
0.248302
0.242945
0.236227
0.228605
0.220884
0.213697
0.207504
0.20294
0.199278
0.196211
0.192682
0.1881
0.182022
0.174236
0.16454
0.152901
0.139372
0.124048
0.107443
0.0902596
0.0752368
0.0632789
0.14372
0.162915
0.186608
0.207605
0.224149
0.23424
0.240149
0.24258
0.242022
0.238883
0.234004
0.228003
0.221618
0.215723
0.210755
0.207295
0.204542
0.202053
0.198757
0.194129
0.187845
0.179831
0.170039
0.158557
0.145405
0.130643
0.114693
0.0982424
0.0833027
0.070194
0.127435
0.142678
0.165135
0.187687
0.206191
0.21836
0.227001
0.23196
0.233757
0.232765
0.229696
0.225322
0.220358
0.215827
0.212039
0.209651
0.207777
0.205848
0.202828
0.198258
0.191932
0.183878
0.174174
0.163017
0.150318
0.136108
0.121094
0.105303
0.0905575
0.0766225
0.115863
0.125503
0.145215
0.168024
0.188126
0.20272
0.213405
0.220359
0.224146
0.225067
0.223775
0.221006
0.217494
0.214236
0.21162
0.210238
0.209172
0.207771
0.205055
0.200651
0.194468
0.186599
0.177191
0.166361
0.154115
0.14056
0.126464
0.111416
0.0968632
0.0824556
0.109265
0.112269
0.127615
0.149068
0.170074
0.186971
0.199765
0.208602
0.213809
0.216348
0.216684
0.215436
0.213311
0.211292
0.209753
0.20928
0.208913
0.207995
0.205609
0.201447
0.195484
0.187918
0.178904
0.168558
0.156897
0.144306
0.13094
0.116567
0.102234
0.087479
0.110045
0.104559
0.113587
0.13159
0.15231
0.171136
0.185993
0.196577
0.203397
0.2072
0.208857
0.208969
0.208115
0.207234
0.206679
0.206988
0.207223
0.206713
0.204667
0.200789
0.195029
0.187765
0.179276
0.169661
0.158765
0.147219
0.134571
0.120818
0.106695
0.0916715
0.117658
0.10513
0.105902
0.117934
0.135905
0.155499
0.172121
0.184349
0.192705
0.197956
0.200778
0.201954
0.202202
0.202317
0.202607
0.203563
0.204313
0.204161
0.202446
0.198954
0.193667
0.18678
0.178788
0.169842
0.160082
0.149345
0.137397
0.124219
0.110284
0.0950587
0.132627
0.114502
0.106022
0.110431
0.123435
0.141109
0.158433
0.172068
0.181886
0.188516
0.192615
0.194773
0.195876
0.196795
0.197767
0.199234
0.200398
0.200564
0.199183
0.196106
0.191354
0.185121
0.17774
0.169599
0.160793
0.150796
0.139488
0.12683
0.113052
0.0976783
0.155031
0.133363
0.117156
0.110929
0.116745
0.1296
0.145669
0.16007
0.171128
0.179034
0.184342
0.18758
0.18946
0.190947
0.192422
0.194259
0.19573
0.196179
0.195124
0.192496
0.188325
0.182885
0.176373
0.16914
0.160985
0.151669
0.140926
0.128722
0.115059
0.0995612
0.184332
0.160818
0.13938
0.123533
0.118143
0.123683
0.135537
0.149139
0.160798
0.169723
0.176114
0.180368
0.183119
0.185081
0.186882
0.18894
0.190619
0.191313
0.190579
0.188441
0.184933
0.180432
0.17492
0.168439
0.16087
0.152106
0.141824
0.129991
0.116382
0.100761
0.219654
0.195288
0.170929
0.147971
0.131584
0.126024
0.130458
0.140654
0.15161
0.160962
0.168166
0.173308
0.17688
0.179458
0.181543
0.183668
0.185477
0.186392
0.185991
0.184444
0.181746
0.178104
0.173456
0.167676
0.160643
0.152276
0.142327
0.130758
0.117117
0.101351
0.25994
0.235197
0.209229
0.181893
0.156702
0.139469
0.133361
0.136694
0.144777
0.153408
0.16089
0.166665
0.170953
0.174138
0.176691
0.17901
0.180945
0.182092
0.182097
0.181074
0.179048
0.176125
0.172264
0.167072
0.160467
0.152372
0.142619
0.131174
0.117369
0.101336
0.30393
0.279035
0.252034
0.222044
0.19093
0.163692
0.146072
0.139499
0.141853
0.148103
0.154938
0.160889
0.165697
0.169467
0.172573
0.175287
0.177489
0.178914
0.179277
0.178672
0.177198
0.174955
0.171638
0.166871
0.160579
0.152672
0.142952
0.131435
0.117297
0.100969
0.350325
0.325434
0.297632
0.26583
0.2309
0.196405
0.16837
0.150972
0.144881
0.146392
0.151331
0.156769
0.161807
0.166117
0.169867
0.173127
0.175714
0.177425
0.178122
0.177933
0.176933
0.175177
0.172345
0.167981
0.161815
0.153745
0.143738
0.13183
0.117129
0.100413
0.398048
0.373244
0.344814
0.311658
0.274218
0.234933
0.198925
0.171561
0.155854
0.15054
0.151638
0.155817
0.160713
0.16551
0.170061
0.174085
0.177206
0.179295
0.180309
0.180442
0.179768
0.178309
0.175685
0.171502
0.165321
0.156839
0.145845
0.132892
0.117075
0.0999179
0.446654
0.422108
0.393366
0.359388
0.320487
0.278402
0.23713
0.201822
0.177008
0.163948
0.159919
0.161464
0.165827
0.17117
0.176907
0.182069
0.185943
0.188551
0.189822
0.189961
0.189111
0.187248
0.184194
0.179553
0.172819
0.163496
0.151067
0.135804
0.117793
0.0997806
0.497465
0.473777
0.445553
0.411862
0.373004
0.330302
0.286675
0.246337
0.214601
0.194403
0.184892
0.183232
0.186909
0.193343
0.20126
0.20846
0.21357
0.21666
0.217709
0.216839
0.214325
0.210432
0.205217
0.198409
0.189478
0.17781
0.162478
0.143428
0.121012
0.101135
0.557014
0.5357
0.509962
0.479013
0.443159
0.403404
0.361734
0.321273
0.287218
0.26337
0.250557
0.247359
0.252142
0.262098
0.274856
0.286134
0.293272
0.296472
0.29566
0.29088
0.282911
0.272604
0.260593
0.246927
0.231188
0.212667
0.190157
0.162726
0.131771
0.107322
0.645511
0.629839
0.610609
0.587082
0.559647
0.529256
0.496977
0.465031
0.437377
0.417939
0.408645
0.409931
0.421236
0.439479
0.460764
0.478192
0.487814
0.490221
0.484779
0.471771
0.452541
0.428852
0.402213
0.373125
0.341375
0.306177
0.265934
0.218921
0.167201
0.132228
0.812755
0.805841
0.797161
0.785703
0.772439
0.75872
0.744397
0.729237
0.71588
0.70788
0.708183
0.719242
0.739421
0.76568
0.79253
0.812819
0.822982
0.823685
0.813365
0.792789
0.763284
0.726911
0.685537
0.639291
0.587465
0.528989
0.461417
0.380822
0.290684
0.240872
1.05556
1.05475
1.06142
1.06951
1.07676
1.08406
1.08557
1.08274
1.07832
1.07543
1.0797
1.09166
1.10836
1.12754
1.1429
1.15151
1.15345
1.14813
1.1351
1.11526
1.08983
1.0599
1.02611
0.986967
0.940138
0.883834
0.8141
0.724867
0.616634
0.564619
1.15785
1.16043
1.18183
1.20598
1.2223
1.22877
1.22643
1.21916
1.21142
1.20758
1.20997
1.21412
1.21672
1.21771
1.2105
1.19852
1.18762
1.17504
1.16194
1.14911
1.13811
1.1295
1.12227
1.1151
1.10553
1.0927
1.07512
1.05233
1.01923
0.994736
0.14836
0.169742
0.17527
0.176942
0.175201
0.170789
0.164477
0.156933
0.148605
0.139867
0.130916
0.122043
0.113314
0.10509
0.0974961
0.0909081
0.0855157
0.0822486
0.0815652
0.0822045
0.0816569
0.0781372
0.0709919
0.0604527
0.0473691
0.0329567
0.0238139
0.0216679
0.0217247
0.023326
0.236076
0.268511
0.276592
0.273887
0.265153
0.253167
0.239532
0.225256
0.210796
0.196508
0.182506
0.169037
0.156029
0.143905
0.132777
0.12305
0.114872
0.110213
0.109899
0.1124
0.114311
0.112817
0.106077
0.093868
0.077242
0.0580704
0.039528
0.0310507
0.0325429
0.0325445
0.284357
0.321223
0.334084
0.333875
0.326101
0.313901
0.299173
0.283161
0.266477
0.249629
0.232872
0.216581
0.20079
0.186075
0.172722
0.161172
0.151533
0.145954
0.145033
0.147086
0.148621
0.146643
0.138916
0.124959
0.105612
0.0826507
0.0589807
0.0410602
0.0374392
0.0369946
0.313061
0.348437
0.363639
0.366407
0.360949
0.35047
0.336728
0.321032
0.304116
0.286606
0.268886
0.251447
0.234458
0.218621
0.204415
0.192292
0.182276
0.17636
0.174754
0.175772
0.176189
0.173178
0.164561
0.149641
0.128974
0.104073
0.0774471
0.0533536
0.0416206
0.0380649
0.32605
0.357443
0.374582
0.380675
0.378268
0.370574
0.358919
0.344695
0.328675
0.311658
0.294108
0.276622
0.259493
0.243553
0.229419
0.217553
0.20783
0.201926
0.199643
0.199403
0.198378
0.194123
0.184672
0.169243
0.148153
0.122581
0.0946284
0.0671461
0.0493639
0.0412373
0.326386
0.352357
0.370839
0.380487
0.382423
0.378326
0.369445
0.357521
0.343138
0.327461
0.310885
0.294159
0.277678
0.262402
0.248996
0.237984
0.229004
0.223333
0.220418
0.218841
0.216273
0.210698
0.200465
0.184792
0.163817
0.138395
0.110244
0.0813868
0.0598368
0.0479609
0.320108
0.34071
0.35874
0.370878
0.376572
0.376491
0.371186
0.361703
0.349384
0.335795
0.320784
0.305461
0.290233
0.276216
0.264027
0.254327
0.24641
0.241118
0.23764
0.234759
0.230664
0.223781
0.212818
0.197078
0.176541
0.151794
0.124217
0.0953042
0.0716785
0.0569437
0.308059
0.321978
0.339027
0.353371
0.362772
0.366623
0.36518
0.359145
0.349994
0.338232
0.324924
0.311568
0.298053
0.285714
0.275172
0.267112
0.260478
0.255662
0.251702
0.247626
0.242096
0.233999
0.222386
0.206699
0.186806
0.163096
0.136541
0.108426
0.0838411
0.0668801
0.287236
0.296763
0.313274
0.329829
0.342838
0.35058
0.353029
0.350672
0.344595
0.335645
0.325127
0.313428
0.301856
0.291524
0.282942
0.27674
0.271518
0.267239
0.262898
0.257777
0.250979
0.241822
0.229686
0.214154
0.195099
0.172432
0.1471
0.120198
0.095636
0.0769107
0.259835
0.266597
0.283268
0.302199
0.318565
0.330024
0.33621
0.337534
0.334799
0.328883
0.320962
0.311692
0.302431
0.294183
0.287755
0.283528
0.279764
0.27606
0.271449
0.265468
0.257628
0.24763
0.235142
0.219932
0.2015
0.179952
0.156269
0.130596
0.106427
0.0864899
0.233846
0.237138
0.252867
0.272939
0.291927
0.306583
0.316257
0.320948
0.321563
0.318759
0.313627
0.307005
0.300087
0.294246
0.289969
0.28773
0.285406
0.282292
0.27753
0.270903
0.262301
0.251742
0.239172
0.224098
0.206313
0.18594
0.163803
0.139527
0.116026
0.0954429
0.211336
0.209823
0.223386
0.243691
0.26458
0.28202
0.294652
0.302249
0.305869
0.306091
0.303779
0.299834
0.295414
0.291928
0.289867
0.289558
0.288606
0.286081
0.281292
0.274255
0.265269
0.254438
0.241701
0.226896
0.209846
0.190951
0.169973
0.146958
0.124212
0.103376
0.193875
0.186069
0.196201
0.215518
0.237408
0.257052
0.272292
0.282671
0.2889
0.291688
0.292059
0.290719
0.288785
0.287651
0.287726
0.289208
0.289509
0.287573
0.282924
0.275762
0.266399
0.25535
0.242801
0.228515
0.212412
0.194771
0.174885
0.153
0.130982
0.110101
0.182114
0.168098
0.173203
0.189777
0.211342
0.232394
0.249828
0.262651
0.271314
0.276512
0.279136
0.280184
0.280628
0.281722
0.283742
0.28687
0.288325
0.28696
0.282473
0.275224
0.265826
0.254891
0.242679
0.229189
0.21439
0.19761
0.178676
0.157776
0.136418
0.115599
0.180372
0.159454
0.157173
0.168568
0.187792
0.208942
0.227874
0.24275
0.253589
0.260979
0.265767
0.2688
0.271338
0.27442
0.278187
0.282772
0.285292
0.284476
0.280379
0.273443
0.264261
0.25367
0.242039
0.229498
0.215574
0.199593
0.181471
0.16141
0.140622
0.119914
0.187447
0.162891
0.151509
0.154866
0.169025
0.188131
0.207293
0.223566
0.236214
0.245531
0.25226
0.257139
0.261377
0.266104
0.271386
0.2772
0.280678
0.280455
0.276837
0.270437
0.261885
0.25196
0.241232
0.229449
0.216175
0.200854
0.183391
0.164022
0.143703
0.123123
0.204062
0.177061
0.15862
0.152095
0.158265
0.172197
0.189472
0.205948
0.219767
0.230622
0.239015
0.24554
0.251276
0.257217
0.263726
0.270533
0.27484
0.27529
0.27229
0.266605
0.258962
0.250209
0.240379
0.229173
0.216364
0.201542
0.184574
0.165732
0.145773
0.125303
0.232316
0.203549
0.179688
0.163563
0.1581
0.164209
0.176544
0.191207
0.205056
0.216806
0.22648
0.23439
0.241451
0.248319
0.255755
0.263313
0.268327
0.269546
0.267341
0.262649
0.256321
0.248613
0.239515
0.228818
0.216329
0.201823
0.185166
0.166679
0.146948
0.126547
0.271061
0.241001
0.21336
0.189473
0.172978
0.167071
0.171258
0.181246
0.193273
0.204862
0.215231
0.22418
0.232363
0.240167
0.248311
0.256362
0.262002
0.264102
0.263027
0.25949
0.254206
0.247411
0.238916
0.228578
0.216276
0.201879
0.185328
0.16701
0.147344
0.126933
0.318158
0.287036
0.256644
0.227141
0.201305
0.183397
0.176066
0.178187
0.186076
0.195899
0.206107
0.21561
0.224717
0.23348
0.242444
0.250993
0.257311
0.260373
0.260267
0.257741
0.253305
0.247072
0.238913
0.228825
0.216522
0.201995
0.185318
0.166963
0.147183
0.126654
0.37134
0.339137
0.306452
0.272827
0.240051
0.211873
0.192715
0.184392
0.185032
0.191462
0.200426
0.209858
0.219694
0.229424
0.239436
0.248782
0.255864
0.259714
0.26055
0.25889
0.255195
0.249529
0.241617
0.231139
0.218054
0.202827
0.185589
0.166871
0.146767
0.125945
0.42854
0.395208
0.360463
0.323637
0.285887
0.250051
0.220657
0.201523
0.193337
0.193781
0.199907
0.208795
0.219131
0.230164
0.241696
0.252329
0.26034
0.264962
0.266591
0.265568
0.262143
0.256418
0.248189
0.23707
0.222824
0.205726
0.186979
0.167163
0.146337
0.124978
0.488482
0.454163
0.417714
0.378491
0.337355
0.296407
0.259526
0.231115
0.213852
0.207374
0.209214
0.216656
0.227531
0.240307
0.25433
0.267103
0.276374
0.281926
0.284097
0.283089
0.278949
0.271953
0.262103
0.249173
0.232953
0.21348
0.191563
0.169063
0.146288
0.124055
0.551651
0.516944
0.479678
0.439298
0.396549
0.35307
0.311971
0.277304
0.252711
0.239735
0.237026
0.242781
0.254732
0.270414
0.289025
0.305411
0.316793
0.323336
0.325441
0.322929
0.316012
0.305297
0.291246
0.273977
0.253484
0.229822
0.20324
0.175634
0.148423
0.123816
0.622399
0.588856
0.552686
0.513419
0.471729
0.429009
0.387751
0.351338
0.323562
0.307056
0.301898
0.307801
0.32304
0.344519
0.370879
0.393092
0.407492
0.414776
0.41527
0.408342
0.394819
0.375899
0.352877
0.326525
0.297138
0.264902
0.229864
0.193136
0.157706
0.127737
0.713647
0.684286
0.652575
0.618161
0.581642
0.544346
0.508432
0.476689
0.45247
0.43863
0.436361
0.447316
0.469934
0.500894
0.537529
0.566537
0.583581
0.590483
0.58689
0.572211
0.547895
0.515783
0.47817
0.436552
0.391567
0.343492
0.292121
0.238098
0.18563
0.145157
0.852857
0.832673
0.809599
0.784614
0.758098
0.731676
0.707149
0.686645
0.672572
0.667353
0.67367
0.693475
0.725268
0.765364
0.808993
0.840241
0.856314
0.860252
0.850966
0.828432
0.79441
0.75068
0.699459
0.642152
0.57916
0.510337
0.43494
0.352171
0.268522
0.209298
1.0727
1.06391
1.0547
1.04287
1.02942
1.01628
1.00455
0.995469
0.990778
0.99306
1.00584
1.03037
1.06475
1.10353
1.13952
1.15829
1.16412
1.15911
1.14392
1.12025
1.08787
1.04778
1.00054
0.945243
0.879962
0.802509
0.711705
0.603499
0.485982
0.412718
1.3166
1.3138
1.3218
1.33176
1.33667
1.33477
1.32865
1.32091
1.31517
1.31463
1.32276
1.33893
1.35911
1.37429
1.37812
1.36306
1.34637
1.32666
1.30708
1.28706
1.26874
1.25166
1.23457
1.21367
1.18435
1.1411
1.07717
0.990606
0.884528
0.826485
1.35428
1.36436
1.38725
1.41106
1.42676
1.43192
1.42655
1.4153
1.40452
1.39826
1.39783
1.3991
1.39756
1.38863
1.36611
1.3286
1.29771
1.26928
1.24747
1.23175
1.22426
1.22405
1.23
1.23802
1.24384
1.24384
1.23784
1.22461
1.20175
1.18572
0.183208
0.207876
0.212662
0.212577
0.209759
0.204292
0.196761
0.18784
0.177987
0.167623
0.156926
0.146239
0.135577
0.125438
0.11598
0.107856
0.101705
0.100386
0.105039
0.111507
0.114037
0.110327
0.100509
0.0856599
0.0669449
0.0459113
0.0248105
0.0224549
0.0214018
0.0226596
0.295122
0.332419
0.339111
0.335886
0.32601
0.31228
0.296571
0.279948
0.262912
0.245804
0.228651
0.211722
0.194851
0.178726
0.163588
0.150352
0.140262
0.139043
0.147795
0.16051
0.168797
0.168554
0.158449
0.139577
0.113724
0.08337
0.0527344
0.0342007
0.0302942
0.030242
0.359294
0.400372
0.413195
0.41308
0.404388
0.390496
0.37351
0.354701
0.334763
0.314218
0.293301
0.272398
0.251547
0.231645
0.213279
0.197395
0.185494
0.183824
0.192779
0.205931
0.21465
0.214546
0.203559
0.182451
0.152893
0.117006
0.0793595
0.0483804
0.037156
0.0359516
0.401027
0.438497
0.45496
0.458061
0.45195
0.439873
0.423741
0.404878
0.384171
0.362281
0.339665
0.316797
0.293972
0.272228
0.252511
0.235702
0.223339
0.22132
0.229228
0.240835
0.248261
0.247323
0.235726
0.213937
0.183103
0.144967
0.103683
0.0647329
0.0444586
0.0388632
0.426302
0.458247
0.475627
0.481834
0.479124
0.469952
0.455825
0.438103
0.417895
0.395968
0.372989
0.349499
0.326039
0.303783
0.283927
0.267301
0.255285
0.253027
0.259312
0.268436
0.273707
0.271332
0.259149
0.237325
0.206575
0.168194
0.125647
0.0825247
0.0548897
0.0435809
0.437339
0.460383
0.47849
0.489019
0.490649
0.485149
0.473851
0.458137
0.439428
0.418466
0.396153
0.373086
0.350033
0.328311
0.309204
0.293596
0.282489
0.280058
0.284455
0.290678
0.293354
0.289146
0.276294
0.25471
0.2248
0.187431
0.145361
0.100856
0.0680163
0.0514915
0.435907
0.453093
0.470776
0.48363
0.489442
0.488151
0.480244
0.467159
0.450872
0.431671
0.410927
0.38915
0.367361
0.347027
0.329423
0.315495
0.305723
0.303137
0.305547
0.308751
0.308623
0.302388
0.288787
0.267563
0.238907
0.203316
0.162315
0.118358
0.0826967
0.0618169
0.42769
0.437837
0.453508
0.46815
0.477735
0.480784
0.477194
0.468143
0.454211
0.43689
0.418564
0.398808
0.379046
0.360746
0.345352
0.333621
0.325462
0.322709
0.323125
0.323409
0.320383
0.312137
0.297773
0.277001
0.249556
0.215676
0.176668
0.134416
0.0976656
0.0734114
0.410055
0.413947
0.428012
0.444294
0.457423
0.46464
0.465617
0.460464
0.450249
0.436844
0.420683
0.40298
0.385856
0.370189
0.357573
0.348418
0.34199
0.339056
0.337533
0.33504
0.329283
0.319163
0.304109
0.283548
0.257117
0.225217
0.188973
0.148827
0.112056
0.0853153
0.385126
0.383107
0.395949
0.413903
0.430304
0.441622
0.44699
0.446175
0.440012
0.43008
0.417358
0.403247
0.388552
0.375974
0.366551
0.360208
0.355476
0.352329
0.349036
0.34397
0.335792
0.324039
0.308346
0.28779
0.262399
0.232713
0.19886
0.161092
0.125267
0.0969152
0.355446
0.348797
0.360289
0.379173
0.398373
0.413494
0.423118
0.426499
0.424637
0.418584
0.409719
0.399021
0.38785
0.378615
0.372659
0.369217
0.366039
0.362623
0.357732
0.350455
0.340272
0.32734
0.310838
0.290398
0.266078
0.238595
0.206599
0.171098
0.136655
0.107736
0.326958
0.314513
0.323812
0.342766
0.363963
0.382294
0.39574
0.403005
0.405293
0.403302
0.398443
0.391575
0.384089
0.37866
0.376205
0.375597
0.373759
0.370039
0.363771
0.354728
0.343201
0.329037
0.312043
0.291922
0.269006
0.242756
0.212415
0.178956
0.146021
0.117191
0.301255
0.282355
0.288516
0.306478
0.328729
0.349571
0.366231
0.377302
0.383373
0.385208
0.384342
0.381414
0.377861
0.376312
0.377426
0.379466
0.37872
0.374694
0.367349
0.357214
0.344388
0.329409
0.312368
0.292943
0.271136
0.245609
0.216569
0.184876
0.153427
0.125074
0.279255
0.254767
0.256707
0.272273
0.294294
0.316694
0.335922
0.350361
0.359948
0.365457
0.368222
0.369137
0.369626
0.371954
0.376552
0.380956
0.381053
0.376849
0.36882
0.357589
0.344173
0.329141
0.312367
0.293924
0.272392
0.247389
0.21932
0.189094
0.159018
0.131346
0.264608
0.235372
0.231232
0.242647
0.262635
0.285196
0.306094
0.323168
0.335947
0.344837
0.351047
0.355398
0.359797
0.365902
0.373828
0.380256
0.381009
0.376663
0.368246
0.356833
0.343524
0.328833
0.312865
0.294549
0.273014
0.248273
0.220891
0.191832
0.162974
0.136075
0.261014
0.228651
0.215828
0.220866
0.236351
0.257032
0.278216
0.296943
0.312226
0.324103
0.333406
0.340963
0.348935
0.358604
0.369577
0.377692
0.379061
0.374919
0.366704
0.355666
0.342981
0.329087
0.313359
0.294834
0.273069
0.248317
0.221389
0.193287
0.165485
0.13938
0.268179
0.234911
0.215373
0.210612
0.218636
0.234719
0.2541
0.273083
0.289905
0.304087
0.316103
0.326606
0.337666
0.350617
0.36426
0.373786
0.375809
0.372214
0.364804
0.354827
0.343075
0.32951
0.313711
0.294898
0.272856
0.247968
0.22116
0.193642
0.166728
0.141386
0.28684
0.253041
0.228178
0.214464
0.212677
0.221227
0.236053
0.253235
0.270251
0.285804
0.299975
0.313066
0.32702
0.342621
0.358585
0.369386
0.372244
0.369748
0.363889
0.354991
0.343738
0.330103
0.314246
0.294972
0.272538
0.247382
0.22055
0.19332
0.166896