/*--------------------------------*- C++ -*----------------------------------*\
| =========                 |                                                 |
| \\      /  F ield         | OpenFOAM: The Open Source CFD Toolbox           |
|  \\    /   O peration     | Version:  5.0                                   |
|   \\  /    A nd           | Web:      www.OpenFOAM.org                      |
|    \\/     M anipulation  |                                                 |
\*---------------------------------------------------------------------------*/
FoamFile
{
    version     2.0;
    format      ascii;
    class       volScalarField;
    location    "2000/air";
    object      nut;
}
// * * * * * * * * * * * * * * * * * * * * * * * * * * * * * * * * * * * * * //

dimensions      [0 2 -1 0 0 0 0];

internalField   nonuniform List<scalar> 
243000
(
0.000145583
0.00014792
0.000144858
0.000140266
0.00013468
0.00012861
0.000122343
0.000116095
0.000110019
0.000104253
9.88841e-05
9.39719e-05
8.94911e-05
8.54692e-05
8.18936e-05
7.88207e-05
7.62844e-05
7.44102e-05
7.29744e-05
7.27518e-05
7.2668e-05
7.26375e-05
7.19454e-05
0.000322003
7.05043e-05
0.000307657
0.000294946
0.000265288
0.000293156
7.78602e-05
0.000634704
0.000671335
0.000678913
0.000677126
0.000669466
0.000657813
0.000643398
0.000627101
0.00060949
0.00059109
0.000572241
0.000553244
0.000534116
0.000515311
0.000497123
0.000479999
0.000464175
0.000450635
0.000440544
0.00043246
0.000425498
0.000416908
0.00040539
0.000390947
0.000367087
0.00034466
0.000318041
0.000287362
0.000286214
0.00032492
0.00068484
0.000721893
0.000731967
0.000731063
0.000723508
0.000711526
0.000696499
0.000679372
0.000660775
0.000641317
0.000621356
0.000601244
0.000581066
0.000561379
0.000542539
0.000525032
0.00050906
0.000495568
0.000484731
0.000476112
0.000468161
0.000459106
0.000447035
0.000430681
0.000409118
0.000382837
0.000351052
0.000316338
0.000297022
0.000332087
0.000707549
0.000745918
0.000758916
0.000760624
0.00075502
0.000744518
0.000730543
0.000714091
0.000695854
0.000676492
0.000656443
0.000636163
0.000615814
0.000596029
0.000577243
0.000559988
0.000544439
0.000531456
0.000520856
0.00051205
0.000503616
0.000493957
0.000481333
0.000464373
0.000442388
0.000415005
0.000381568
0.000345357
0.000319931
0.000332593
0.000711818
0.000750258
0.00076857
0.000774178
0.000771605
0.000763582
0.000751568
0.00073664
0.000719542
0.000701012
0.000681558
0.000661732
0.000641789
0.000622448
0.000604179
0.000587579
0.000572783
0.000560533
0.000550366
0.000541513
0.00053263
0.000522361
0.000509204
0.000491891
0.000469695
0.000442116
0.000408525
0.000372036
0.000342449
0.000336155
0.000703532
0.000742738
0.000765771
0.000776155
0.000777471
0.000772535
0.000763051
0.000750173
0.000734727
0.000717537
0.000699145
0.000680208
0.00066107
0.000642549
0.000625087
0.000609409
0.000595561
0.000584149
0.000574473
0.000565635
0.000556379
0.000545554
0.000531918
0.000514365
0.00049216
0.000464774
0.00043163
0.000395397
0.000363534
0.000343807
0.000684959
0.000726976
0.000754712
0.000769731
0.000775276
0.000773966
0.000767251
0.000756688
0.000743297
0.000727821
0.000710838
0.000693109
0.000675059
0.000657612
0.000641165
0.000626569
0.000613787
0.000603242
0.000594071
0.000585294
0.000575747
0.000564454
0.000550416
0.0005327
0.00051061
0.000483585
0.000451089
0.000415427
0.000382462
0.000356338
0.000657754
0.000704243
0.000736813
0.000756702
0.000766733
0.000769273
0.000765905
0.000758038
0.000746651
0.00073308
0.000717787
0.000701516
0.000684771
0.000668545
0.000653269
0.000639853
0.000628194
0.000618514
0.000609839
0.000601166
0.000591412
0.00057976
0.000565404
0.000547594
0.00052569
0.000499099
0.000467366
0.000432611
0.00039926
0.00036968
0.000624548
0.000675986
0.000713601
0.000738444
0.000753123
0.000759643
0.000759787
0.000754901
0.000746209
0.00073461
0.00072091
0.00070625
0.000690951
0.000676062
0.000662051
0.000649863
0.000639339
0.000630497
0.000622313
0.000613782
0.000603909
0.000592004
0.000577431
0.000559593
0.000537921
0.000511854
0.000480715
0.000446977
0.000413559
0.000382578
0.000591927
0.000645989
0.000687268
0.000716361
0.000735536
0.00074611
0.000749864
0.00074817
0.000742171
0.000732887
0.000721245
0.000708019
0.000694208
0.000680722
0.000668024
0.000657073
0.00064766
0.000639622
0.000631913
0.000623562
0.000613654
0.000601608
0.000586921
0.000569128
0.000547771
0.000522087
0.000491432
0.000458942
0.00042578
0.000394063
0.0005618
0.000615321
0.000660105
0.000692945
0.000715381
0.000729625
0.000736929
0.000738482
0.000735311
0.000728436
0.000718796
0.000707443
0.000695114
0.000682982
0.000671604
0.000661864
0.000653508
0.000646238
0.000638991
0.000630852
0.000620994
0.000608914
0.000594223
0.000576577
0.000555486
0.000530119
0.000500109
0.000468904
0.000436193
0.000403875
0.000538158
0.000584624
0.000631663
0.000668435
0.000694574
0.000711768
0.000721841
0.00072643
0.000726121
0.000721726
0.000714215
0.000704654
0.000693927
0.000683258
0.000673139
0.000664555
0.000657182
0.000650639
0.00064384
0.000635947
0.000626215
0.000614208
0.000599656
0.000582185
0.000561288
0.000536219
0.000507484
0.000477342
0.000445098
0.000412459
0.000526594
0.000556443
0.000602136
0.000642378
0.000672573
0.000693219
0.000706071
0.000712838
0.000715089
0.000713159
0.000707814
0.000700124
0.000691005
0.000681754
0.0006729
0.000665413
0.000658958
0.000653067
0.000646708
0.000639096
0.000629585
0.000617785
0.000603382
0.000586075
0.000565383
0.000540631
0.000513457
0.000484397
0.00045266
0.000419925
0.000532279
0.000536612
0.000573274
0.000614814
0.000648986
0.00067354
0.000689618
0.000698912
0.000703052
0.000703194
0.000699931
0.00069412
0.00068662
0.000678764
0.000671132
0.000664672
0.000659013
0.000653752
0.000647842
0.000640573
0.000631305
0.000619687
0.00060547
0.00058839
0.000567943
0.000544026
0.000518244
0.000490217
0.000459
0.000426372
0.000556138
0.000533259
0.000550024
0.000587095
0.000623829
0.000652409
0.000672148
0.000684361
0.000690716
0.000692555
0.000690962
0.000686911
0.000681009
0.000674509
0.000668044
0.00066254
0.000657633
0.000652921
0.000647384
0.000640364
0.000631342
0.000619977
0.000606011
0.000589212
0.000569129
0.000546586
0.000522022
0.000494935
0.000464219
0.000431883
0.000592904
0.000553567
0.000541502
0.000563475
0.000598243
0.000629861
0.000653419
0.000668937
0.000677855
0.000681637
0.000681544
0.000678833
0.000674395
0.000669194
0.000663829
0.000659208
0.000654984
0.000650779
0.000645646
0.000638967
0.000630186
0.000619068
0.000605338
0.000588803
0.000569556
0.000548333
0.00052488
0.000498648
0.000468397
0.000436477
0.000636786
0.000593294
0.000557465
0.000552454
0.000575847
0.000606881
0.000633506
0.000652482
0.000664289
0.000670295
0.000671896
0.000670398
0.000667056
0.00066302
0.000658669
0.000654858
0.000651256
0.000647521
0.000642781
0.000636459
0.000628034
0.000617181
0.000603731
0.000587576
0.000569467
0.000549384
0.000526918
0.000501445
0.000471606
0.000440189
0.000680437
0.000640165
0.000595421
0.000563909
0.000563847
0.000586478
0.000613283
0.000635116
0.000649926
0.000658404
0.000661897
0.000661814
0.000659424
0.00065623
0.000652752
0.000649667
0.000646636
0.000643338
0.00063898
0.000633029
0.000624983
0.000614495
0.000601408
0.000586164
0.000569012
0.000549866
0.000528241
0.000503416
0.000473915
0.00044298
0.000721931
0.00068661
0.000643219
0.00059805
0.000571127
0.000574493
0.000595166
0.000617581
0.000634903
0.000645918
0.000651477
0.000652966
0.000651708
0.000649162
0.000646304
0.000643823
0.000641303
0.000638416
0.000634439
0.000628868
0.000621232
0.000611191
0.000598871
0.000584546
0.000568247
0.000549856
0.000528943
0.000504652
0.000475406
0.000445176
0.000761905
0.000730475
0.000691358
0.000644462
0.000599999
0.000578097
0.000583686
0.000601736
0.000619823
0.000632973
0.000640625
0.000643793
0.00064382
0.000642093
0.000639686
0.000637565
0.000635454
0.000632946
0.000629348
0.000624174
0.000616986
0.00060769
0.000596252
0.000582768
0.000567236
0.000549506
0.000529136
0.000505254
0.000476168
0.000446851
0.000800177
0.000771094
0.000736177
0.000692603
0.000642602
0.000600689
0.000584132
0.000590832
0.000606046
0.000620044
0.000629467
0.000634317
0.000635702
0.000634946
0.000633142
0.00063127
0.000629354
0.000627146
0.000623915
0.000619212
0.000612727
0.000604227
0.000593606
0.0005809
0.000566066
0.000548918
0.000528965
0.000505325
0.000476282
0.000448224
0.000836607
0.000809891
0.000777901
0.000738036
0.000689099
0.00063738
0.000600158
0.000588846
0.000595887
0.000608125
0.000618377
0.000624659
0.000627383
0.000627694
0.000626628
0.000625156
0.00062351
0.00062153
0.00061867
0.000614477
0.000608636
0.000600874
0.000591032
0.000579064
0.000564878
0.000548237
0.000528605
0.000505065
0.000475979
0.000450347
0.000871208
0.000846221
0.000816347
0.000779505
0.000733617
0.000679893
0.000629353
0.00059878
0.000592133
0.000598823
0.000608098
0.000615144
0.000619021
0.000620394
0.000620174
0.000619237
0.000617953
0.000616261
0.000613769
0.000610062
0.000604827
0.000597766
0.000588683
0.000577437
0.000563877
0.000547696
0.000528283
0.000504691
0.000475514
0.000455194
0.000904129
0.000880054
0.000851599
0.000817005
0.00077417
0.000722069
0.000665859
0.000620106
0.000597228
0.000594181
0.000599874
0.000606449
0.000611012
0.000613327
0.000613989
0.00061371
0.000612886
0.000611554
0.00060945
0.000606223
0.000601557
0.000595169
0.000586821
0.000576278
0.000563308
0.000547543
0.000528281
0.000504481
0.000475163
0.000462556
0.000933676
0.00091059
0.000883478
0.000850787
0.000810665
0.000761435
0.000704641
0.000649967
0.000612158
0.000596575
0.000595643
0.000599979
0.000604404
0.000607377
0.000608903
0.000609396
0.000609152
0.00060827
0.000606583
0.000603803
0.000599645
0.000593823
0.000586053
0.000576097
0.000563686
0.000548355
0.000529216
0.000505023
0.00047538
0.000472575
0.000961333
0.000939161
0.000913272
0.000882336
0.000844749
0.000798766
0.000744155
0.000686254
0.000637747
0.000609265
0.000599229
0.000599156
0.00060236
0.000605625
0.000608038
0.000609469
0.000609978
0.00060964
0.000608345
0.000605882
0.000602028
0.000596554
0.000589208
0.000579688
0.000567639
0.00055245
0.000533053
0.000507883
0.000477622
0.000486042
0.000989957
0.000969055
0.000944693
0.000915766
0.000880972
0.000838833
0.000788408
0.000732135
0.000678897
0.00064033
0.00062065
0.00061474
0.0006157
0.000619072
0.00062266
0.000625369
0.000626798
0.000626952
0.000625725
0.00062302
0.000618756
0.000612845
0.000605128
0.000595293
0.000582869
0.000567102
0.000546589
0.00051931
0.000486728
0.000506836
0.00102678
0.00100792
0.000986008
0.000960398
0.000930303
0.000894679
0.000852475
0.000804324
0.00075529
0.000714928
0.000690348
0.000680485
0.000679969
0.000684125
0.000689404
0.000693494
0.000695404
0.000695155
0.000692653
0.000688028
0.000681488
0.000673222
0.000663278
0.000651312
0.000636553
0.000618237
0.000594668
0.000562817
0.000524513
0.000551684
0.00109863
0.00108414
0.00106867
0.0010521
0.00103387
0.00101321
0.000988828
0.000960408
0.000929454
0.000902149
0.000884744
0.00087796
0.000878827
0.000884432
0.000890507
0.000894467
0.000895065
0.000892757
0.00088766
0.00088005
0.000870434
0.000859231
0.000846782
0.000832557
0.000814459
0.00079323
0.000767267
0.000733014
0.000691164
0.000706578
0.00133378
0.00132991
0.00133111
0.00133217
0.00133201
0.0013301
0.00132568
0.00131873
0.00130716
0.00129567
0.00128743
0.00128272
0.00128124
0.0012835
0.001286
0.00128765
0.00128685
0.00128581
0.00128422
0.0012826
0.00128085
0.00127937
0.00127807
0.00127628
0.0012673
0.00125799
0.00124591
0.00122856
0.00120547
0.0012011
0.000176595
0.000182573
0.000180056
0.000174876
0.000168187
0.000160701
0.000152901
0.000145135
0.000137603
0.000130456
0.000123755
0.000117583
0.000111942
0.000106943
0.000102599
9.90334e-05
9.62941e-05
9.45929e-05
9.39942e-05
9.41911e-05
9.44316e-05
9.38657e-05
9.17782e-05
8.76428e-05
8.11488e-05
7.17441e-05
0.000302128
0.000283722
0.000310745
8.03433e-05
0.000684746
0.000772447
0.000747963
0.000696261
0.00063849
0.000583985
0.000535615
0.000493252
0.000456028
0.000423652
0.000395255
0.000370625
0.000348586
0.000329547
0.00031271
0.00029821
0.000284626
0.000273646
0.000265299
0.000260632
0.000259349
0.000259555
0.000256876
0.000247777
0.00023142
0.000210454
0.000242593
0.000295048
0.000319113
0.000330016
0.00108803
0.0012584
0.00126796
0.00121538
0.00114023
0.0010607
0.000985353
0.000916552
0.000854418
0.000799291
0.000750178
0.000707077
0.00066816
0.000634337
0.000604589
0.000578375
0.000552573
0.000529612
0.000508356
0.000491096
0.000479385
0.00047143
0.000461119
0.00044265
0.000411952
0.000371204
0.00034036
0.000334117
0.000366672
0.000398971
0.00135133
0.00158021
0.00162363
0.00159279
0.00152521
0.00144328
0.00135933
0.00127881
0.00120354
0.00113499
0.0010727
0.00101728
0.000967109
0.000923213
0.000885044
0.000851272
0.000817437
0.00078544
0.000752848
0.000722585
0.000698034
0.000678827
0.000658165
0.00062825
0.000584468
0.000526605
0.000463053
0.000408673
0.000399406
0.00041806
0.00148651
0.00172857
0.00182872
0.00184086
0.00179613
0.00172585
0.00164563
0.00156469
0.00148564
0.00141185
0.00134339
0.00128178
0.00122563
0.00117653
0.00113449
0.00109748
0.00105918
0.00102125
0.000979822
0.00093853
0.000901998
0.000871255
0.00083961
0.000799369
0.000745167
0.000675289
0.000593129
0.000507757
0.000458769
0.000443249
0.00156137
0.00180556
0.00194114
0.00198677
0.00197306
0.00192245
0.00185305
0.00178042
0.0017041
0.00163193
0.00156302
0.00150027
0.00144289
0.00139286
0.00135057
0.00131338
0.0012737
0.00123216
0.00118415
0.00113398
0.00108724
0.00104595
0.00100444
0.000955561
0.000893396
0.000815246
0.000722593
0.000619888
0.000542418
0.000498637
0.00158926
0.0018291
0.0019816
0.00205648
0.00207299
0.00204978
0.00200162
0.00193579
0.00186516
0.00180139
0.00173641
0.0016767
0.00162206
0.00157481
0.00153481
0.00150033
0.00146128
0.00141774
0.00136507
0.00130804
0.00125309
0.00120238
0.00115279
0.00109717
0.00102931
0.00094586
0.000847074
0.000735497
0.000639264
0.000572331
0.00157547
0.00179369
0.00196005
0.0020629
0.00211053
0.00211425
0.0020886
0.00204157
0.00198847
0.00192877
0.00186851
0.00181585
0.00176681
0.00172507
0.00168971
0.00165977
0.00162309
0.00157888
0.00152324
0.00146118
0.00139984
0.00134276
0.00128633
0.00122509
0.00115329
0.00106678
0.000965129
0.000848923
0.000739918
0.000650206
0.00149095
0.00170028
0.0018833
0.00201504
0.00209518
0.00212713
0.00212658
0.00210314
0.00206612
0.00201953
0.00197172
0.00192303
0.00188103
0.00184653
0.00181779
0.0017938
0.00176069
0.00171718
0.00165999
0.00159542
0.00153016
0.00146792
0.00140671
0.00134122
0.00126639
0.00117832
0.00107655
0.000957717
0.000839369
0.000728102
0.00136041
0.00155523
0.00175742
0.00191968
0.00203445
0.0020968
0.00212461
0.00212589
0.00210886
0.00207817
0.00204203
0.00200379
0.00196878
0.00194209
0.00192147
0.00190421
0.00187554
0.00183372
0.00177644
0.00171044
0.00164224
0.00157704
0.00151276
0.00144584
0.00136972
0.0012821
0.00118063
0.00106085
0.00093507
0.000803396
0.00123328
0.00138814
0.00158812
0.00178044
0.00193456
0.00202925
0.00208848
0.00211585
0.00212043
0.00210763
0.00208527
0.00205874
0.00203291
0.00201573
0.00200309
0.0019927
0.00196939
0.00193004
0.00187394
0.001808
0.00173893
0.00167142
0.00160607
0.00153946
0.00146455
0.00137593
0.00127689
0.00115484
0.00102254
0.000874348
0.00112926
0.00122676
0.00140284
0.00160584
0.00179002
0.00192753
0.00202272
0.00207751
0.00210456
0.00211099
0.00210433
0.00209103
0.00207643
0.00206819
0.00206444
0.00206109
0.00204358
0.00200743
0.00195357
0.00188924
0.00182146
0.00175437
0.00168945
0.00162196
0.00154703
0.00145936
0.00136134
0.00123831
0.00109908
0.000938454
0.0010585
0.0010929
0.00122649
0.00141859
0.00161816
0.00178954
0.00192245
0.00201385
0.00206438
0.00209128
0.00210174
0.00210303
0.00210066
0.00210267
0.00210743
0.00211122
0.00209936
0.00206711
0.00201663
0.00195485
0.00188854
0.00182274
0.00175771
0.00169133
0.00161761
0.00153445
0.00143459
0.00130961
0.00116428
0.000992467
0.0010463
0.00100563
0.00108203
0.00124093
0.00143715
0.00162938
0.00179293
0.00191742
0.00200146
0.00205153
0.00207983
0.00209678
0.00210751
0.00212031
0.00213388
0.00214471
0.0021387
0.00211057
0.00206424
0.00200536
0.00193895
0.00187294
0.00180933
0.00174711
0.0016764
0.00159799
0.0014963
0.0013688
0.00121773
0.00103651
0.00108292
0.000986585
0.000994676
0.0010982
0.00126728
0.00146253
0.00164567
0.00179695
0.00191115
0.00199101
0.00204138
0.00207407
0.00209866
0.00212271
0.00214496
0.00216277
0.00216314
0.0021398
0.00209807
0.00204375
0.00198156
0.00191548
0.00185193
0.00179075
0.0017271
0.00164888
0.00154595
0.00141592
0.00125949
0.00107041
0.00117669
0.00103569
0.000972146
0.00101362
0.0011329
0.00130688
0.00149371
0.00166249
0.00180121
0.00190794
0.00198457
0.00203717
0.00207584
0.00211118
0.00214194
0.00216682
0.00217391
0.00215627
0.00211979
0.00207048
0.00201311
0.00195149
0.00188912
0.0018288
0.00176774
0.00168849
0.00158404
0.00145144
0.00128999
0.00109439
0.00133238
0.00115974
0.00103862
0.000996511
0.00105537
0.00118242
0.00135223
0.00152554
0.00168035
0.00180888
0.00190914
0.00198489
0.00204071
0.00208727
0.00212646
0.0021584
0.00217242
0.00216142
0.0021308
0.00208727
0.00203523
0.00197988
0.00192197
0.00186352
0.00179869
0.00171783
0.00161153
0.00147617
0.00130998
0.00110885
0.00154615
0.00135429
0.00119042
0.00107864
0.00104831
0.00111287
0.00124022
0.0013997
0.00155866
0.00170134
0.00182065
0.00191684
0.00199253
0.00205255
0.00210033
0.00213921
0.00216036
0.00215681
0.00213277
0.00209598
0.00205055
0.00200273
0.00195101
0.00189167
0.00182258
0.00173861
0.00162981
0.0014914
0.00132053
0.00111463
0.00180915
0.00160722
0.00141552
0.00124919
0.00113939
0.00111422
0.00117858
0.00130108
0.00144791
0.00159403
0.00172555
0.0018378
0.00193073
0.00200733
0.00206562
0.00211115
0.00213969
0.00214441
0.00212792
0.00209944
0.0020625
0.00202171
0.00197397
0.00191386
0.00184114
0.00175266
0.00164063
0.00149867
0.00132295
0.00111265
0.00210821
0.00190225
0.00169347
0.00148969
0.0013153
0.00120528
0.0011829
0.00124668
0.00136161
0.00149685
0.00163123
0.00175324
0.00185922
0.0019495
0.00202111
0.00207612
0.00211256
0.00212636
0.00211885
0.00209884
0.00206978
0.00203411
0.0019897
0.00192922
0.00185417
0.00176155
0.00164584
0.00149975
0.00131853
0.00110298
0.00242549
0.0022194
0.00200068
0.00177283
0.00155277
0.00137198
0.00126552
0.00124833
0.00131187
0.00142042
0.00154567
0.00166894
0.00178184
0.00188134
0.00196327
0.00202863
0.00207427
0.00209763
0.00209973
0.002088
0.00206595
0.00203651
0.0019945
0.00193622
0.001862
0.00176791
0.00164751
0.00149653
0.00130939
0.00108972
0.00273768
0.00253404
0.00231081
0.00206914
0.00182017
0.00158881
0.0014109
0.00131453
0.00130821
0.00137214
0.00147549
0.0015893
0.00170071
0.00180245
0.00188867
0.00195927
0.00201081
0.00204225
0.00205403
0.0020523
0.00203955
0.00201769
0.00198392
0.00193248
0.00185989
0.00176439
0.00164263
0.00148874
0.00129706
0.00107367
0.0030151
0.00281633
0.00259401
0.00234756
0.00208412
0.00182213
0.00159279
0.00142875
0.00135151
0.00135693
0.00141871
0.00151237
0.00161093
0.00170407
0.00178402
0.00185075
0.00190131
0.00193641
0.00195682
0.00196722
0.00196843
0.00196126
0.00194243
0.00190609
0.00184541
0.00175423
0.00162819
0.00147327
0.00127896
0.00105453
0.00322039
0.0030305
0.0028159
0.00257432
0.00230983
0.00203525
0.00177531
0.00156094
0.0014203
0.00136322
0.00137259
0.0014244
0.00149357
0.00156216
0.00162215
0.001673
0.00171381
0.00174764
0.00177447
0.00179779
0.00181661
0.00182997
0.0018342
0.00182271
0.0017871
0.00171735
0.00160348
0.0014464
0.00125281
0.00103034
0.00331054
0.00313677
0.00293922
0.00271369
0.0024614
0.00219032
0.00191862
0.00167263
0.00148229
0.00136495
0.00131463
0.00131112
0.00133443
0.00136631
0.00139935
0.00143061
0.00145933
0.00148769
0.0015168
0.00154776
0.00157954
0.001611
0.00163858
0.00165567
0.00165309
0.00161931
0.00153806
0.00140184
0.00121487
0.00100605
0.00325213
0.00310633
0.00293793
0.00274108
0.00251451
0.00226271
0.00199925
0.00174649
0.00153248
0.00137675
0.00128085
0.00123239
0.00121938
0.00122776
0.00124858
0.00127298
0.00129577
0.00131783
0.00134123
0.00136478
0.00138963
0.00141621
0.00144319
0.00146627
0.00147815
0.00146823
0.0014206
0.0013164
0.00116018
0.000985722
0.00306089
0.00295854
0.00283489
0.00268284
0.00249984
0.0022896
0.00206458
0.00184514
0.00165361
0.00150697
0.00140674
0.00134962
0.00133151
0.00133952
0.00136358
0.00139029
0.00141131
0.00142854
0.00144199
0.00145063
0.00145591
0.00145919
0.00146106
0.00145902
0.00144819
0.00142021
0.00136146
0.00125625
0.00110217
0.000961381
0.00287656
0.00282888
0.0027588
0.00266152
0.00253557
0.00238594
0.00222508
0.0020676
0.00192718
0.00181521
0.00173438
0.0016903
0.00167696
0.00168622
0.0017087
0.00173305
0.00175119
0.0017664
0.00177581
0.00177961
0.00177825
0.00177205
0.00176187
0.00174395
0.00171326
0.00166157
0.00157461
0.00143382
0.00123861
0.00111569
0.00278782
0.0027704
0.00275013
0.00271004
0.00264457
0.00256023
0.00246124
0.00235905
0.00226233
0.00217957
0.00211707
0.00207893
0.0020616
0.0020614
0.00207058
0.00208408
0.00209607
0.00210843
0.00211907
0.0021286
0.00213694
0.0021423
0.00214677
0.00214392
0.00212961
0.00209714
0.00203345
0.0019228
0.00176568
0.00169546
0.00276994
0.0027703
0.0027715
0.002757
0.00272322
0.00267842
0.00262426
0.00256272
0.00250007
0.00244432
0.00239932
0.00236528
0.00234286
0.00233245
0.00232884
0.00233333
0.00234061
0.00235196
0.00236672
0.00238531
0.00240702
0.00243156
0.00245296
0.0024727
0.0024877
0.00249412
0.00248378
0.00245375
0.00241266
0.00239427
0.00020327
0.000209315
0.000204946
0.000198647
0.000190959
0.000182458
0.000173636
0.000164864
0.00015636
0.000148292
0.000140713
0.000133722
0.000127299
0.000121597
0.00011664
0.000112631
0.000109691
0.000108455
0.000109318
0.000111497
0.000113296
0.000113365
0.000110865
0.000105243
9.60628e-05
8.27743e-05
6.891e-05
0.000294012
7.43141e-05
8.06171e-05
0.000880879
0.00100974
0.00101336
0.00095786
0.00088563
0.000814549
0.000749897
0.000693174
0.000643113
0.000599133
0.000559652
0.000524485
0.000491484
0.000461873
0.000433907
0.000408178
0.000382593
0.000364368
0.000355473
0.00035705
0.000365542
0.000374292
0.000373613
0.000356402
0.00032273
0.000278305
0.000231945
0.000284745
0.000280147
0.000319854
0.00141418
0.00166193
0.00172257
0.00168303
0.00160029
0.00150407
0.00140764
0.00131748
0.00123443
0.00115914
0.00108996
0.00102716
0.000967647
0.000913657
0.000863344
0.000815776
0.000766434
0.000726409
0.000696762
0.000682138
0.000681325
0.00068519
0.000674717
0.00064235
0.000583691
0.000501972
0.000410573
0.000360991
0.00036936
0.000425808
0.00181048
0.00210575
0.00220865
0.00220084
0.00213175
0.00203735
0.00193344
0.00183007
0.00173076
0.00163796
0.00155094
0.00147078
0.00139473
0.00132523
0.00126122
0.00120032
0.00113552
0.00107769
0.00102811
0.000994702
0.000978449
0.000969884
0.00095007
0.000904257
0.000825959
0.000718035
0.000592073
0.000477009
0.000435542
0.000465434
0.00207598
0.00238189
0.00252388
0.00255319
0.00250726
0.00242792
0.00233012
0.00222685
0.00212297
0.00202337
0.00192815
0.00183964
0.00175509
0.00167794
0.00160784
0.0015404
0.00146584
0.00139352
0.00132636
0.00127537
0.00124342
0.00122225
0.00119194
0.00113611
0.00104588
0.000921992
0.000774069
0.000620358
0.000527395
0.000512967
0.00223719
0.00252733
0.00269775
0.00276586
0.00275896
0.00270357
0.00261931
0.00252553
0.00242469
0.00232679
0.00223068
0.00214071
0.00205459
0.00197644
0.00190568
0.00183668
0.00175591
0.00167127
0.00158893
0.00152243
0.00147577
0.00144293
0.00140432
0.001341
0.00124443
0.00111257
0.000952902
0.00077748
0.000646958
0.000592899
0.00235514
0.00262534
0.00280025
0.00289152
0.0029142
0.00288869
0.00282715
0.0027427
0.0026485
0.00256039
0.00246869
0.00238297
0.00230097
0.00222735
0.00215983
0.00209295
0.00200811
0.00191311
0.00181793
0.00173818
0.00167934
0.00163526
0.00158929
0.00152314
0.0014236
0.00128956
0.00112617
0.000940033
0.000784392
0.000697063
0.00243667
0.00265623
0.00282692
0.00293733
0.00298882
0.00299248
0.00295794
0.00289596
0.00282308
0.00273837
0.0026503
0.00257465
0.00250062
0.00243556
0.00237518
0.00231289
0.0022255
0.00212215
0.00201645
0.00192581
0.00185626
0.00180263
0.00175034
0.00168305
0.00158534
0.00145409
0.00129198
0.00110393
0.000930008
0.000813608
0.00242501
0.00261447
0.00278381
0.00291407
0.00299498
0.00302882
0.00302412
0.00298786
0.00293375
0.00286618
0.00279731
0.00272439
0.00265926
0.00260605
0.0025558
0.0024996
0.00241119
0.00230146
0.00218778
0.0020886
0.00201016
0.00194831
0.00189111
0.00182358
0.00173268
0.00160437
0.00144544
0.00126
0.00107814
0.000933784
0.00233938
0.00250568
0.00267782
0.00283092
0.00294236
0.00300854
0.00303438
0.00302741
0.0029965
0.00294932
0.00289553
0.00283683
0.00278536
0.00274311
0.00270507
0.00265581
0.00256772
0.00245347
0.00233416
0.00222975
0.00214468
0.0020758
0.00201526
0.00194949
0.00186103
0.0017387
0.00158815
0.0014066
0.00122005
0.00105099
0.00222979
0.00236276
0.00252784
0.00269643
0.00283849
0.00293929
0.00299829
0.00302094
0.00301712
0.00299287
0.0029578
0.00291708
0.00287929
0.00285265
0.00282592
0.00278386
0.00269763
0.00258158
0.00245959
0.00235211
0.00226272
0.00218952
0.00212763
0.00205929
0.00197271
0.00185827
0.00171588
0.00154112
0.00135332
0.00116705
0.00211825
0.0021997
0.00234534
0.00252239
0.00269138
0.0028272
0.0029218
0.00297612
0.00300046
0.0030017
0.00298812
0.00296712
0.00294658
0.00293475
0.00292042
0.00288595
0.0028033
0.00268774
0.00256633
0.00245801
0.00236798
0.00229276
0.00222485
0.00215493
0.00207045
0.00196639
0.00182959
0.00166059
0.00147266
0.001274
0.00202411
0.00203156
0.002146
0.00232054
0.00250949
0.00267769
0.00280814
0.00289765
0.00295269
0.00297996
0.00298997
0.00299035
0.00298883
0.0029931
0.00299135
0.00296439
0.0028867
0.00277427
0.00265701
0.00255075
0.002457
0.00237745
0.00230736
0.00223783
0.0021568
0.00206003
0.00192954
0.00176495
0.0015765
0.00136777
0.00195099
0.00188613
0.00195433
0.00210924
0.00230534
0.00249891
0.00266296
0.00278759
0.00287533
0.00293241
0.00296698
0.0029896
0.00300857
0.00302918
0.0030401
0.00302136
0.00295099
0.00284383
0.00273099
0.00262509
0.00253042
0.0024492
0.00237718
0.0023098
0.00223568
0.0021414
0.00201638
0.00185452
0.00166464
0.00144714
0.00195344
0.00180441
0.00180437
0.00191537
0.0020984
0.00230356
0.00249419
0.00265142
0.00277197
0.00285986
0.00292235
0.00296815
0.00300734
0.00304468
0.0030685
0.00305905
0.00299879
0.0028986
0.00279385
0.00269332
0.00259916
0.00251707
0.0024445
0.00237707
0.00230407
0.00221124
0.00208904
0.00192913
0.001737
0.00151152
0.00201983
0.00182318
0.00173302
0.00177375
0.00191677
0.00211117
0.00231428
0.00249702
0.00264771
0.00276592
0.00285678
0.0029279
0.00298748
0.003041
0.00307838
0.00307933
0.00303155
0.00294106
0.0028451
0.00275185
0.00266297
0.00258216
0.00250954
0.00243852
0.00236374
0.00227034
0.00214854
0.00198995
0.00179407
0.0015609
0.0021627
0.00193008
0.00177096
0.00172465
0.00179823
0.00194928
0.0021419
0.00233619
0.00250988
0.00265516
0.0027733
0.0028696
0.00295053
0.00301972
0.00307062
0.00308328
0.00304965
0.00297198
0.0028862
0.00280119
0.00271951
0.00264325
0.00257015
0.00249469
0.00241538
0.00231948
0.00219582
0.00203611
0.00183592
0.00159539
0.00240072
0.00214368
0.00192925
0.00179438
0.00176101
0.00185
0.00200175
0.00218537
0.00236877
0.00253375
0.00267554
0.00279514
0.00289638
0.00298118
0.00304516
0.00307043
0.00305207
0.00299038
0.0029162
0.00284109
0.00276809
0.00269651
0.00262281
0.00254361
0.002459
0.00235896
0.0022316
0.00206839
0.00186351
0.00161551
0.00271453
0.00244482
0.00219284
0.00198591
0.001858
0.00183682
0.00192224
0.00206419
0.0022377
0.00240944
0.00256775
0.0027061
0.00282427
0.00292373
0.00299889
0.00303673
0.00303396
0.00299116
0.00293012
0.00286625
0.00280197
0.00273503
0.00266149
0.00258146
0.00249324
0.00238846
0.0022561
0.00208771
0.00187631
0.00162088
0.00307276
0.00279848
0.00252382
0.00226661
0.00205769
0.0019336
0.00191526
0.00199505
0.00213162
0.00229011
0.00245409
0.00260253
0.00273149
0.00284079
0.00292295
0.00297048
0.00298191
0.00295922
0.00291432
0.00286261
0.00280771
0.00274679
0.00267913
0.00260571
0.00251703
0.00240823
0.00227022
0.00209607
0.00187704
0.00161458
0.00343697
0.00316272
0.00287604
0.0025878
0.00232164
0.00211184
0.00199316
0.00198006
0.00205139
0.00218535
0.00233695
0.00248065
0.00261248
0.00271946
0.00280056
0.00285213
0.0028757
0.00287052
0.00284577
0.00281061
0.00277169
0.00272713
0.0026725
0.0026037
0.00251948
0.00241617
0.00227683
0.00209697
0.0018702
0.00159982
0.00376472
0.0034939
0.00320358
0.00289996
0.00259981
0.00233055
0.00212795
0.00202134
0.00201328
0.00208244
0.00219923
0.00232579
0.00244149
0.00253864
0.00260771
0.00265632
0.00268727
0.00269612
0.00269198
0.00267935
0.00266282
0.00264142
0.00261015
0.00256108
0.0024858
0.00238028
0.00225047
0.00207695
0.0018519
0.00157724
0.00401246
0.00374959
0.00346399
0.00315855
0.00284442
0.00254155
0.0022801
0.00209277
0.00199849
0.00198994
0.00204334
0.00212537
0.0022084
0.0022813
0.0023317
0.0023729
0.00240403
0.00242526
0.00243944
0.00245083
0.00245994
0.00246609
0.00246407
0.00244522
0.00239845
0.0023115
0.00218248
0.0020183
0.00180593
0.001542
0.00413927
0.00389211
0.00362133
0.00332726
0.0030165
0.00270248
0.00240807
0.00216248
0.00199129
0.00190137
0.0018776
0.00189692
0.00193684
0.00198062
0.00202161
0.00205821
0.00209058
0.0021188
0.00214474
0.00217143
0.00219735
0.00222253
0.00224288
0.00225051
0.00223474
0.00218192
0.00207653
0.00192392
0.00172231
0.00147919
0.00411886
0.00389874
0.0036557
0.00338742
0.00309676
0.00279242
0.00249154
0.00221911
0.00200175
0.00185355
0.00176868
0.00173738
0.00174639
0.00177647
0.00182115
0.00186285
0.00189793
0.00192692
0.00195459
0.00197874
0.00200036
0.00202055
0.0020379
0.00204714
0.00203994
0.00200507
0.00192682
0.00179317
0.00161951
0.00140325
0.00396039
0.00378413
0.00358593
0.00336083
0.00310921
0.0028379
0.00256139
0.00230263
0.00208688
0.00192608
0.00182081
0.00177498
0.00177597
0.00180713
0.00185944
0.00190637
0.0019411
0.00196663
0.00198693
0.00199848
0.0020029
0.00200166
0.00199508
0.00198015
0.00195083