/*--------------------------------*- C++ -*----------------------------------*\
| =========                 |                                                 |
| \\      /  F ield         | OpenFOAM: The Open Source CFD Toolbox           |
|  \\    /   O peration     | Version:  5.0                                   |
|   \\  /    A nd           | Web:      www.OpenFOAM.org                      |
|    \\/     M anipulation  |                                                 |
\*---------------------------------------------------------------------------*/
FoamFile
{
    version     2.0;
    format      ascii;
    class       volScalarField;
    location    "2000/air";
    object      T;
}
// * * * * * * * * * * * * * * * * * * * * * * * * * * * * * * * * * * * * * //

dimensions      [0 0 0 1 0 0 0];

internalField   nonuniform List<scalar> 
243000
(
300.522
300.515
300.51
300.505
300.5
300.494
300.489
300.484
300.479
300.473
300.467
300.461
300.455
300.448
300.441
300.434
300.426
300.417
300.407
300.395
300.38
300.365
300.35
300.336
300.324
300.317
300.324
300.628
301.335
301.587
300.519
300.511
300.506
300.5
300.495
300.49
300.485
300.48
300.474
300.468
300.463
300.456
300.45
300.444
300.437
300.429
300.421
300.413
300.402
300.391
300.377
300.362
300.347
300.333
300.322
300.314
300.316
300.432
300.949
301.355
300.518
300.509
300.503
300.497
300.492
300.486
300.481
300.476
300.47
300.465
300.459
300.453
300.446
300.44
300.433
300.425
300.417
300.409
300.399
300.387
300.374
300.36
300.345
300.332
300.32
300.311
300.31
300.357
300.526
301.074
300.517
300.508
300.501
300.494
300.489
300.483
300.478
300.472
300.467
300.461
300.455
300.449
300.443
300.436
300.429
300.421
300.413
300.405
300.395
300.384
300.371
300.358
300.344
300.33
300.318
300.309
300.306
300.323
300.373
300.764
300.517
300.508
300.5
300.493
300.487
300.481
300.475
300.47
300.464
300.458
300.452
300.446
300.439
300.433
300.425
300.418
300.41
300.401
300.391
300.38
300.368
300.356
300.342
300.329
300.318
300.308
300.303
300.309
300.328
300.544
300.519
300.508
300.5
300.492
300.485
300.479
300.473
300.467
300.461
300.455
300.449
300.443
300.436
300.429
300.422
300.414
300.406
300.397
300.388
300.377
300.366
300.354
300.341
300.329
300.317
300.308
300.302
300.302
300.31
300.41
300.522
300.51
300.5
300.492
300.484
300.477
300.471
300.465
300.459
300.453
300.447
300.44
300.433
300.426
300.419
300.411
300.403
300.394
300.385
300.374
300.363
300.352
300.34
300.328
300.317
300.308
300.301
300.299
300.302
300.377
300.527
300.512
300.501
300.492
300.484
300.476
300.47
300.463
300.457
300.451
300.444
300.438
300.431
300.424
300.416
300.408
300.4
300.391
300.382
300.372
300.361
300.35
300.339
300.328
300.317
300.308
300.301
300.298
300.299
300.362
300.537
300.516
300.502
300.492
300.484
300.476
300.469
300.462
300.455
300.449
300.442
300.435
300.428
300.421
300.413
300.405
300.397
300.388
300.379
300.369
300.359
300.349
300.338
300.327
300.317
300.309
300.302
300.297
300.297
300.354
300.556
300.523
300.505
300.493
300.484
300.476
300.468
300.461
300.454
300.447
300.44
300.433
300.426
300.419
300.411
300.403
300.394
300.385
300.376
300.367
300.357
300.347
300.337
300.327
300.318
300.309
300.302
300.297
300.297
300.349
300.588
300.536
300.511
300.496
300.485
300.476
300.468
300.46
300.453
300.446
300.439
300.432
300.424
300.417
300.409
300.401
300.392
300.383
300.374
300.365
300.356
300.346
300.337
300.327
300.318
300.31
300.303
300.298
300.297
300.347
300.636
300.56
300.521
300.5
300.486
300.476
300.467
300.459
300.452
300.445
300.437
300.43
300.423
300.415
300.407
300.399
300.39
300.381
300.372
300.363
300.354
300.345
300.336
300.327
300.318
300.311
300.304
300.298
300.297
300.347
300.699
300.6
300.54
300.509
300.49
300.478
300.468
300.459
300.451
300.444
300.436
300.429
300.421
300.413
300.405
300.397
300.388
300.379
300.37
300.362
300.353
300.344
300.335
300.327
300.319
300.312
300.305
300.299
300.297
300.349
300.773
300.661
300.575
300.525
300.497
300.481
300.469
300.46
300.451
300.443
300.435
300.428
300.42
300.412
300.404
300.395
300.386
300.378
300.369
300.36
300.352
300.343
300.335
300.327
300.319
300.312
300.306
300.299
300.298
300.352
300.847
300.743
300.632
300.555
300.512
300.487
300.472
300.461
300.451
300.443
300.435
300.427
300.419
300.411
300.403
300.394
300.385
300.376
300.368
300.359
300.351
300.343
300.335
300.327
300.32
300.313
300.306
300.3
300.299
300.356
300.912
300.834
300.715
300.608
300.539
300.5
300.478
300.463
300.452
300.443
300.435
300.426
300.418
300.41
300.402
300.393
300.384
300.375
300.367
300.358
300.35
300.342
300.335
300.327
300.32
300.313
300.307
300.301
300.3
300.362
300.963
300.916
300.815
300.688
300.587
300.524
300.489
300.468
300.454
300.444
300.435
300.426
300.418
300.409
300.401
300.392
300.383
300.375
300.366
300.358
300.35
300.342
300.335
300.327
300.321
300.314
300.307
300.301
300.301
300.369
301.002
300.976
300.909
300.79
300.661
300.566
300.51
300.478
300.459
300.446
300.435
300.426
300.418
300.409
300.4
300.392
300.383
300.374
300.366
300.357
300.349
300.342
300.335
300.328
300.321
300.314
300.308
300.302
300.302
300.378
301.033
301.019
300.979
300.891
300.758
300.632
300.546
300.496
300.467
300.449
300.437
300.427
300.418
300.409
300.4
300.391
300.382
300.374
300.365
300.357
300.349
300.342
300.335
300.328
300.321
300.314
300.308
300.302
300.303
300.389
301.061
301.051
301.028
300.971
300.86
300.721
300.603
300.526
300.482
300.456
300.44
300.428
300.418
300.409
300.4
300.391
300.382
300.374
300.365
300.357
300.349
300.342
300.335
300.328
300.321
300.315
300.308
300.303
300.305
300.402
301.088
301.08
301.064
301.028
300.948
300.818
300.679
300.573
300.506
300.468
300.446
300.431
300.419
300.41
300.4
300.391
300.383
300.374
300.365
300.357
300.349
300.342
300.335
300.328
300.321
300.315
300.309
300.303
300.307
300.418
301.116
301.107
301.094
301.069
301.014
300.909
300.768
300.636
300.544
300.488
300.456
300.436
300.422
300.411
300.401
300.392
300.383
300.374
300.366
300.358
300.35
300.342
300.335
300.328
300.322
300.315
300.309
300.303
300.31
300.446
301.144
301.135
301.122
301.102
301.063
300.983
300.856
300.712
300.594
300.517
300.471
300.444
300.426
300.413
300.402
300.393
300.384
300.375
300.366
300.358
300.35
300.343
300.336
300.329
300.322
300.315
300.309
300.304
300.315
300.505
301.174
301.163
301.15
301.131
301.1
301.04
300.934
300.793
300.657
300.556
300.493
300.456
300.432
300.417
300.404
300.394
300.384
300.375
300.367
300.359
300.351
300.343
300.336
300.329
300.322
300.316
300.309
300.305
300.322
300.588
301.203
301.191
301.176
301.157
301.13
301.082
300.996
300.868
300.725
300.605
300.523
300.473
300.442
300.422
300.408
300.396
300.386
300.377
300.368
300.359
300.351
300.344
300.337
300.33
300.323
300.316
300.31
300.305
300.332
300.686
301.233
301.218
301.201
301.18
301.154
301.113
301.043
300.932
300.792
300.66
300.561
300.496
300.456
300.43
300.412
300.399
300.388
300.378
300.369
300.36
300.352
300.344
300.337
300.33
300.323
300.316
300.31
300.307
300.345
300.797
301.259
301.24
301.22
301.197
301.17
301.132
301.073
300.977
300.849
300.713
300.6
300.522
300.471
300.439
300.416
300.4
300.388
300.377
300.368
300.359
300.351
300.344
300.336
300.329
300.322
300.316
300.309
300.307
300.362
300.918
301.263
301.24
301.215
301.188
301.158
301.121
301.069
300.987
300.872
300.741
300.623
300.536
300.476
300.436
300.41
300.391
300.377
300.366
300.357
300.349
300.341
300.335
300.328
300.322
300.316
300.31
300.304
300.306
300.386
301.023
301.155
301.126
301.097
301.067
301.034
300.995
300.946
300.875
300.778
300.666
300.56
300.478
300.419
300.379
300.352
300.333
300.32
300.31
300.303
300.298
300.293
300.289
300.286
300.282
300.279
300.276
300.273
300.281
300.406
301.017
300.554
300.544
300.54
300.532
300.517
300.496
300.469
300.433
300.386
300.332
300.281
300.24
300.209
300.188
300.172
300.161
300.154
300.148
300.144
300.141
300.139
300.137
300.136
300.136
300.135
300.135
300.136
300.148
300.235
300.54
300.524
300.517
300.51
300.505
300.499
300.493
300.487
300.481
300.475
300.469
300.462
300.455
300.447
300.439
300.431
300.422
300.413
300.401
300.386
300.367
300.345
300.322
300.299
300.28
300.264
300.256
300.282
300.673
301.314
301.483
300.521
300.511
300.504
300.498
300.492
300.486
300.48
300.474
300.468
300.461
300.454
300.447
300.44
300.432
300.424
300.415
300.405
300.394
300.38
300.362
300.342
300.32
300.3
300.281
300.265
300.255
300.268
300.456
300.956
301.219
300.52
300.509
300.5
300.493
300.487
300.48
300.474
300.468
300.461
300.455
300.448
300.44
300.433
300.425
300.417
300.408
300.398
300.387
300.374
300.357
300.339
300.319
300.299
300.282
300.266
300.255
300.259
300.356
300.601
300.928
300.522
300.509
300.499
300.49
300.483
300.476
300.47
300.463
300.456
300.449
300.442
300.435
300.427
300.419
300.41
300.401
300.391
300.381
300.368
300.353
300.336
300.317
300.299
300.282
300.268
300.256
300.255
300.304
300.424
300.641
300.526
300.512
300.5
300.49
300.481
300.473
300.466
300.459
300.452
300.445
300.437
300.429
300.421
300.413
300.404
300.395
300.385
300.375
300.362
300.348
300.333
300.316
300.299
300.283
300.269
300.258
300.253
300.278
300.34
300.466
300.533
300.517
300.504
300.492
300.482
300.472
300.464
300.456
300.448
300.441
300.433
300.425
300.417
300.408
300.399
300.389
300.38
300.369
300.357
300.344
300.33
300.314
300.299
300.284
300.27
300.259
300.253
300.265
300.298
300.376
300.544
300.525
300.509
300.495
300.483
300.473
300.463
300.454
300.446
300.437
300.429
300.421
300.412
300.403
300.394
300.384
300.374
300.364
300.353
300.34
300.327
300.313
300.298
300.284
300.272
300.261
300.254
300.258
300.278
300.34
300.559
300.536
300.516
300.5
300.486
300.474
300.463
300.453
300.443
300.435
300.426
300.417
300.408
300.399
300.39
300.38
300.37
300.359
300.348
300.337
300.324
300.311
300.298
300.285
300.273
300.263
300.255
300.256
300.268
300.321
300.577
300.55
300.526
300.506
300.49
300.476
300.464
300.453
300.442
300.433
300.424
300.414
300.405
300.395
300.386
300.375
300.365
300.355
300.344
300.333
300.322
300.31
300.297
300.285
300.274
300.264
300.257
300.256
300.264
300.311
300.597
300.565
300.538
300.514
300.495
300.48
300.466
300.454
300.442
300.432
300.422
300.412
300.402
300.392
300.382
300.372
300.361
300.351
300.341
300.33
300.319
300.308
300.297
300.286
300.275
300.266
300.259
300.256
300.262
300.306
300.621
300.584
300.551
300.524
300.502
300.484
300.469
300.455
300.443
300.431
300.421
300.41
300.4
300.39
300.379
300.368
300.358
300.348
300.338
300.328
300.317
300.307
300.296
300.286
300.276
300.268
300.261
300.257
300.263
300.304
300.652
300.608
300.568
300.536
300.511
300.49
300.473
300.458
300.444
300.432
300.42
300.409
300.398
300.387
300.377
300.366
300.355
300.345
300.335
300.325
300.315
300.306
300.296
300.286
300.277
300.269
300.262
300.259
300.264
300.305
300.689
300.64
300.592
300.553
300.522
300.497
300.478
300.461
300.447
300.433
300.421
300.409
300.397
300.386
300.375
300.363
300.352
300.342
300.332
300.323
300.314
300.305
300.295
300.286
300.278
300.27
300.264
300.261
300.265
300.306
300.732
300.683
300.625
300.576
300.537
300.508
300.485
300.466
300.45
300.435
300.422
300.409
300.397
300.385
300.373
300.361
300.35
300.34
300.33
300.321
300.312
300.304
300.295
300.287
300.279
300.272
300.266
300.262
300.267
300.309
300.776
300.735
300.672
300.61
300.56
300.523
300.495
300.473
300.454
300.438
300.424
300.41
300.397
300.385
300.372
300.36
300.349
300.338
300.329
300.32
300.311
300.303
300.295
300.287
300.28
300.273
300.267
300.264
300.269
300.313
300.816
300.79
300.73
300.659
300.595
300.546
300.51
300.483
300.461
300.443
300.427
300.412
300.398
300.385
300.372
300.36
300.348
300.337
300.328
300.319
300.31
300.302
300.295
300.287
300.28
300.274
300.268
300.266
300.271
300.319
300.85
300.839
300.794
300.721
300.644
300.58
300.532
300.497
300.471
300.449
300.431
300.415
300.4
300.386
300.373
300.36
300.348
300.337
300.327
300.318
300.31
300.302
300.295
300.287
300.281
300.275
300.27
300.267
300.274
300.325
300.879
300.878
300.852
300.791
300.708
300.629
300.566
300.519
300.485
300.459
300.438
300.419
300.403
300.388
300.374
300.36
300.348
300.337
300.327
300.318
300.31
300.302
300.294
300.287
300.281
300.275
300.271
300.269
300.276
300.332
300.904
300.909
300.897
300.854
300.779
300.691
300.612
300.55
300.505
300.472
300.447
300.426
300.407
300.391
300.376
300.362
300.349
300.337
300.327
300.318
300.31
300.302
300.294
300.288
300.282
300.276
300.272
300.271
300.279
300.34
300.928
300.936
300.931
300.904
300.846
300.761
300.67
300.593
300.534
300.492
300.46
300.435
300.414
300.395
300.379
300.364
300.351
300.339
300.328
300.318
300.31
300.302
300.295
300.288
300.282
300.277
300.273
300.272
300.282
300.35
300.954
300.96
300.959
300.943
300.901
300.828
300.736
300.646
300.573
300.518
300.478
300.447
300.422
300.402
300.384
300.368
300.353
300.34
300.329
300.319
300.31
300.302
300.295
300.288
300.283
300.278
300.274
300.274
300.286
300.362
300.981
300.985
300.984
300.973
300.943
300.886
300.801
300.707
300.621
300.553
300.502
300.464
300.434
300.41
300.39
300.372
300.357
300.343
300.331
300.321
300.311
300.303
300.296
300.289
300.283
300.279
300.276
300.276
300.29
300.378
301.009
301.01
301.007
300.998
300.976
300.931
300.859
300.768
300.674
300.594
300.531
300.484
300.448
300.42
300.397
300.377
300.361
300.346
300.334
300.323
300.313
300.304
300.297
300.29
300.284
300.28
300.277
300.278
300.296
300.402
301.038
301.035
301.03
301.02
301.001
300.965
300.906
300.822
300.728
300.639
300.566
300.509
300.466
300.432
300.406
300.384
300.365
300.35
300.336
300.325
300.315
300.306
300.298
300.291
300.285
300.281
300.278
300.28
300.304
300.435
301.066
301.058
301.049
301.036
301.018
300.988
300.938
300.865
300.774
300.682
300.6
300.534
300.483
300.444
300.414
300.389
300.369
300.353
300.338
300.326
300.316
300.306
300.298
300.291
300.285
300.281
300.278
300.283
300.315
300.478
301.086
301.074
301.059
301.043
301.023
300.996
300.953
300.888
300.804
300.712
300.625
300.553
300.496
300.451
300.417
300.39
300.368
300.351
300.336
300.324
300.313
300.304
300.296
300.289
300.284
300.279
300.278
300.285
300.33
300.537
301.088
301.068
301.048
301.027
301.005
300.978
300.939
300.883
300.807
300.716
300.627
300.55
300.487
300.439
300.402
300.374
300.352
300.335
300.322
300.311
300.301
300.294
300.287
300.281
300.276
300.273
300.273
300.287
300.353
300.621
301.034
301.008
300.984
300.962
300.939
300.911
300.874
300.821
300.748
300.662
300.575
300.499
300.438
300.392
300.357
300.331
300.312
300.297
300.286
300.277
300.27
300.265
300.26
300.257
300.254
300.253
300.256
300.282
300.383
300.737
300.854
300.826
300.809
300.793
300.774
300.749
300.714
300.666
300.603
300.528
300.454
300.391
300.341
300.303
300.274
300.253
300.239
300.228
300.22
300.214
300.21
300.207
300.205
300.204
300.204
300.206
300.212
300.247
300.393
300.758
300.478
300.468
300.466
300.464
300.458
300.445
300.425
300.397
300.359
300.314
300.27
300.233
300.204
300.181
300.164
300.152
300.143
300.135
300.13
300.126
300.123
300.12
300.119
300.118
300.117
300.117
300.12
300.142
300.234
300.455
300.525
300.517
300.511
300.505
300.498
300.492
300.486
300.479
300.472
300.465
300.457
300.449
300.441
300.433
300.423
300.413
300.402
300.387
300.366
300.339
300.31
300.281
300.257
300.237
300.221
300.211
300.244
300.672
301.276
301.388
300.518
300.509
300.502
300.495
300.489
300.482
300.476
300.469
300.462
300.455
300.447
300.439
300.431
300.422
300.413
300.403
300.392
300.378
300.358
300.334
300.308
300.282
300.259
300.239
300.223
300.212
300.226
300.459
300.948
301.131
300.514
300.504
300.496
300.489
300.482
300.476
300.469
300.462
300.455
300.447
300.439
300.431
300.422
300.413
300.404
300.394
300.383
300.369
300.351
300.329
300.305
300.282
300.26
300.241
300.226
300.214
300.218
300.349
300.64
300.867
300.513
300.502
300.493
300.485
300.478
300.471
300.463
300.456
300.448
300.44
300.432
300.424
300.415
300.406
300.396
300.386
300.374
300.361
300.345
300.325
300.303
300.282
300.261
300.243
300.228
300.216
300.216
300.289
300.457
300.614
300.513
300.503
300.493
300.484
300.475
300.467
300.459
300.451
300.443
300.435
300.426
300.417
300.408
300.399
300.389
300.378
300.367
300.354
300.339
300.321
300.301
300.281
300.262
300.245
300.231
300.219
300.215
300.256
300.355
300.458
300.515
300.505
300.495
300.485
300.476
300.466
300.457
300.448
300.439
300.431
300.421
300.412
300.402
300.392
300.382
300.371
300.36
300.348
300.333
300.317
300.299
300.281
300.263
300.247
300.233
300.221
300.216
300.238
300.297
300.369
300.52
300.51
300.499
300.488
300.478
300.467
300.457
300.446
300.437
300.427
300.417
300.407
300.397
300.387
300.376
300.365
300.354
300.342
300.328
300.313
300.297
300.28
300.264
300.249
300.235
300.224
300.218
300.229
300.265
300.321
300.527
300.517
300.505
300.493
300.481
300.469
300.458
300.446
300.435
300.425
300.414
300.404
300.393
300.382
300.371
300.359
300.348
300.336
300.324
300.31
300.295
300.279
300.264
300.25
300.238
300.227
300.22
300.224
300.247
300.294
300.538
300.527
300.514
300.5
300.486
300.473
300.46
300.447
300.435
300.423
300.412
300.401
300.389
300.378
300.366
300.354
300.343
300.331
300.319
300.306
300.293
300.279
300.265
300.252
300.24
300.23
300.222
300.224
300.238
300.279
300.554
300.542
300.526
300.509
300.493
300.478
300.463
300.45
300.436
300.424
300.411
300.399
300.387
300.374
300.362
300.35
300.338
300.327
300.315
300.303
300.291
300.278
300.265
300.253
300.242
300.232
300.225
300.224
300.234
300.27
300.575
300.56
300.541
300.521
300.502
300.484
300.468
300.453
300.439
300.425
300.411
300.398
300.385
300.372
300.359
300.346
300.334
300.323
300.312
300.3
300.289
300.277
300.266
300.255
300.244
300.235
300.227
300.226
300.234
300.266
300.598
300.582
300.56
300.536
300.514
300.493
300.474
300.457
300.442
300.427
300.412
300.398
300.383
300.37
300.356
300.343
300.331
300.319
300.309
300.298
300.287
300.277
300.266
300.256
300.246
300.237
300.23
300.228
300.234
300.265
300.626
300.609
300.583
300.555
300.528
300.504
300.483
300.464
300.446
300.43
300.414
300.399
300.384
300.368
300.354
300.341
300.328
300.317
300.306
300.296
300.286
300.276
300.266
300.257
300.248
300.239
300.233
300.23
300.236
300.266
300.658
300.642
300.613
300.58
300.547
300.519
300.494
300.472
300.452
300.434
300.417
300.401
300.384
300.368
300.353
300.339
300.326
300.315
300.304
300.294
300.285
300.276
300.266
300.258
300.249
300.241
300.235
300.233
300.238
300.268
300.691
300.679
300.65
300.611
300.573
300.538
300.508
300.483
300.46
300.44
300.421
300.404
300.386
300.369
300.353
300.338
300.325
300.313
300.303
300.293
300.284
300.275
300.267
300.258
300.25
300.243
300.238
300.236
300.241
300.272
300.724
300.719
300.693
300.651
300.606
300.564
300.528
300.498
300.471
300.448
300.428
300.408
300.389
300.371
300.354
300.338
300.324
300.312
300.302
300.293
300.284
300.275
300.267
300.259
300.251
300.245
300.24
300.238
300.244
300.277
300.756
300.758
300.739
300.699
300.648
300.598
300.554
300.517
300.486
300.459
300.436
300.414
300.393
300.374
300.356
300.339
300.325
300.312
300.302
300.292
300.283
300.275
300.267
300.26
300.253
300.247
300.242
300.241
300.248
300.282
300.785
300.793
300.782
300.75
300.699
300.642
300.589
300.543
300.505
300.474
300.446
300.422
300.399
300.378
300.359
300.341
300.326
300.313
300.302
300.292
300.283
300.275
300.267
300.26
300.254
300.248
300.244
300.244
300.251
300.289
300.813
300.824
300.82
300.797
300.752
300.693
300.632
300.577
300.53
300.492
300.46
300.432
300.407
300.384
300.363
300.345
300.328
300.315
300.303
300.293
300.284
300.276
300.268
300.261
300.255
300.25
300.246
300.246
300.255
300.296
300.842
300.853
300.853
300.838
300.802
300.747
300.682
300.618
300.562
300.516
300.478
300.445
300.416
300.391
300.368
300.349
300.332
300.317
300.305
300.294
300.285
300.276
300.269
300.262
300.256
300.251
300.248
300.249
300.259
300.305
300.871
300.881
300.882
300.872
300.845
300.798
300.734
300.665
300.6
300.545
300.499
300.461
300.428
300.4
300.375
300.354
300.336
300.32
300.307
300.296
300.286
300.278
300.27
300.263
300.258
300.253
300.25
300.252
300.264
300.315
300.902
300.908
300.909
300.901
300.88
300.841
300.784
300.714
300.643
300.579
300.525
300.48
300.442
300.41
300.383
300.36
300.341
300.324
300.31
300.299
300.288
300.28
300.272
300.265
300.259
300.255
300.252
300.254
300.269
300.327
300.933
300.935
300.933
300.926
300.909
300.877
300.827
300.76
300.687
300.616
300.553
300.501
300.458
300.422
300.392
300.366
300.346
300.328
300.313
300.301
300.291
300.282
300.274
300.267
300.261
300.257
300.255
300.258
300.276
300.344
300.962
300.96
300.955
300.947
300.931
300.903
300.859
300.799
300.726
300.652
300.583
300.523
300.474
300.433
300.4
300.372
300.349
300.331
300.315
300.303
300.292
300.282
300.274
300.268
300.262
300.258
300.257
300.261
300.284
300.366
300.987
300.98
300.971
300.959
300.942
300.917
300.878
300.824
300.755
300.68
300.606
300.541
300.485
300.44
300.403
300.373
300.349
300.329
300.314
300.301
300.29
300.281
300.273
300.267
300.262
300.258
300.258
300.265
300.296
300.397
300.999
300.986
300.973
300.957
300.939
300.915
300.881
300.831
300.765
300.691
300.615
300.545
300.485
300.435
300.395
300.363
300.338
300.318
300.303
300.291
300.281
300.273
300.266
300.261
300.257
300.255
300.257
300.27
300.314
300.445
300.981
300.961
300.942
300.924
300.905
300.881
300.849
300.802
300.74
300.667
300.59
300.519
300.458
300.407
300.367
300.334
300.31
300.292
300.278
300.267
300.259
300.253
300.249
300.246
300.244
300.244
300.25
300.273
300.34
300.522
300.9
300.875
300.856
300.839
300.822
300.8
300.768
300.724
300.666
300.596
300.523
300.456
300.399
300.352
300.314
300.284
300.262
300.246
300.234
300.226
300.221
300.218
300.216
300.215
300.216
300.218
300.229
300.267
300.369
300.617
300.721
300.702
300.689
300.679
300.666
300.648
300.622
300.584
300.534
300.474
300.413
300.357
300.31
300.272
300.242
300.218
300.201
300.189
300.18
300.174
300.17
300.168
300.167
300.167
300.169
300.172
300.184
300.23
300.367
300.625
300.44
300.436
300.437
300.438
300.437
300.429
300.414
300.39
300.357
300.317
300.276
300.239
300.208
300.182
300.162
300.146
300.134
300.125
300.118
300.114
300.111
300.109
300.108
300.107
300.108
300.109
300.116
300.147
300.238
300.41
300.527
300.519
300.512
300.506
300.499
300.492
300.485
300.478
300.471
300.463
300.455
300.446
300.437
300.428
300.418
300.407
300.394
300.374
300.345
300.309
300.276
300.247
300.224
300.207
300.194
300.185
300.206
300.676
301.229
301.302
300.518
300.508
300.501
300.494
300.487
300.481
300.474
300.466
300.459
300.451
300.443
300.434
300.425
300.416
300.406
300.395
300.382
300.363
300.337
300.306
300.275
300.248
300.227
300.209
300.196
300.186
300.196
300.468
300.952
301.065
300.512
300.502
300.494
300.486
300.479
300.472
300.465
300.458
300.45
300.442
300.433
300.424
300.415
300.405
300.395
300.384
300.371
300.354
300.33
300.302
300.274
300.249
300.228
300.211
300.198
300.188
300.192
300.355
300.684
300.84
300.508
300.497
300.489
300.481
300.474
300.466
300.459
300.451
300.443
300.434
300.425
300.416
300.406
300.396
300.386
300.375
300.362
300.345
300.324
300.298
300.273
300.25
300.23
300.214
300.2
300.19
300.191
300.29
300.505
300.635
300.506
300.496
300.487
300.478
300.47
300.462
300.454
300.446
300.437
300.428
300.419
300.409
300.399
300.388
300.378
300.366
300.353
300.337
300.318
300.295
300.272
300.25
300.232
300.216
300.202
300.192
300.191
300.252
300.392
300.492
300.506
300.496
300.487
300.478
300.469
300.46
300.451
300.442
300.432
300.423
300.413
300.403
300.392
300.381
300.37
300.358
300.346
300.33
300.312
300.291
300.271
300.251
300.233
300.218
300.205
300.194
300.192
300.229
300.321
300.398
300.507
300.499
300.489
300.48
300.47
300.46
300.45
300.439
300.429
300.419
300.408
300.398
300.386
300.375
300.363
300.351
300.338
300.324
300.307
300.288
300.269
300.251
300.235
300.22
300.207
300.197
300.193
300.215
300.276
300.338
300.511
300.502
300.493
300.483
300.473
300.462
300.451
300.439
300.428
300.416
300.405
300.393
300.382
300.369
300.357
300.345
300.332
300.318
300.302
300.285
300.268
300.251
300.236
300.222
300.21
300.2
300.195
300.207
300.247
300.298
300.516
300.509
300.499
300.488
300.477
300.465
300.453
300.44
300.428
300.415
300.403
300.39
300.377
300.365
300.352
300.339
300.326
300.312
300.298
300.282
300.267
300.252
300.237
300.224
300.213
300.203
300.197
300.203
300.23
300.272
300.525
300.519
300.508
300.496
300.483
300.47
300.456
300.443
300.43
300.416
300.402
300.388
300.374
300.36
300.347
300.333
300.32
300.307
300.294
300.28
300.266
300.252
300.239
300.226
300.215
300.205
300.199
300.202
300.22
300.256
300.539
300.532
300.521
300.507
300.492
300.477
300.462
300.447
300.432
300.418
300.403
300.387
300.372
300.357
300.343
300.329
300.316
300.303
300.29
300.277
300.264
300.252
300.24
300.228
300.218
300.208
300.201
300.203
300.215
300.246
300.556
300.55
300.537
300.521
300.504
300.486
300.469
300.452
300.436
300.42
300.404
300.388
300.371
300.355
300.34
300.325
300.312
300.299
300.287
300.275
300.264
300.252
300.241
300.23
300.22
300.211
300.204
300.204
300.214
300.241
300.577
300.571
300.557
300.539
300.519
300.499
300.479
300.46
300.442
300.425
300.407
300.39
300.372
300.354
300.338
300.322
300.309
300.296
300.285
300.274
300.263
300.252
300.242
300.232
300.222
300.213
300.207
300.206
300.214
300.239
300.602
300.597
300.582
300.562
300.538
300.515
300.492
300.47
300.45
300.431
300.412
300.392
300.373
300.354
300.337
300.321
300.307
300.294
300.283
300.273
300.263
300.253
300.243
300.233
300.224
300.216
300.21
300.209
300.216
300.24
300.63
300.627
300.612
300.589
300.562
300.535
300.508
300.483
300.46
300.439
300.418
300.397
300.376
300.356
300.337
300.32
300.306
300.293
300.282
300.272
300.262
300.253
300.243
300.234
300.226
300.219
300.213
300.212
300.219
300.243
300.659
300.66
300.647
300.623
300.592
300.56
300.529
300.5
300.474
300.449
300.425
300.402
300.38
300.358
300.338
300.32
300.305
300.293
300.282
300.272
300.262
300.253
300.244
300.236
300.228
300.221
300.216
300.215
300.222
300.246
300.69
300.694
300.684
300.661
300.628
300.592
300.555
300.521
300.49
300.462
300.435
300.41
300.385
300.362
300.341
300.322
300.306
300.293
300.282
300.272
300.262
300.253
300.245
300.237
300.23
300.223
300.219
300.219
300.226
300.251
300.72
300.728
300.722
300.702
300.669
300.629
300.587
300.547
300.511
300.478
300.448
300.42
300.393
300.367
300.345
300.325
300.308
300.295
300.283
300.272
300.263
300.254
300.246
300.238
300.231
300.226
300.222
300.222
300.23
300.257
300.751
300.761
300.758
300.743
300.712
300.671
300.625
300.579
300.536
300.498
300.463
300.431
300.401
300.374
300.35
300.329
300.311
300.297
300.284
300.273
300.264
300.255
300.247
300.24
300.233
300.228
300.225
300.226
300.234
300.264
300.783
300.792
300.792
300.78
300.754
300.715
300.666
300.615
300.566
300.521
300.481
300.445
300.412
300.382
300.356
300.334
300.315
300.3
300.287
300.275
300.265
300.257
300.249
300.242
300.236
300.231
300.228
300.229
300.239
300.273
300.815
300.823
300.823
300.814
300.793
300.757
300.709
300.654
300.599
300.548
300.502
300.461
300.424
300.391
300.363
300.34
300.32
300.303
300.289
300.278
300.267
300.259
300.251
300.244
300.238
300.233
300.231
300.233
300.245
300.282
300.847
300.852
300.851
300.844
300.826
300.795
300.749
300.694
300.635
300.577
300.525
300.478
300.437
300.402
300.371
300.346
300.324
300.307
300.292
300.28
300.269
300.26
300.253
300.246
300.24
300.236
300.234
300.237
300.251
300.294
300.878
300.879
300.877
300.869
300.853
300.826
300.785
300.731
300.67
300.607
300.549
300.497
300.451
300.412
300.379
300.351
300.328
300.309
300.293
300.28
300.27
300.261
300.253
300.247
300.242
300.238
300.237
300.242
300.259
300.309
300.906
300.903
300.898
300.888
300.873
300.848
300.811
300.76
300.699
300.634
300.571
300.514
300.463
300.42
300.384
300.353
300.328
300.308
300.291
300.279
300.268
300.26
300.253
300.247
300.242
300.24
300.24
300.247
300.269
300.329
300.925
300.918
300.909
300.897
300.881
300.857
300.823
300.775
300.716
300.65
300.584
300.523
300.468
300.421
300.382
300.348
300.321
300.299
300.283
300.271
300.262
300.254
300.248
300.244
300.241
300.239
300.242
300.253
300.283
300.359
300.927
300.915
300.901
300.887
300.869
300.847
300.816
300.773
300.717
300.651
300.583
300.517
300.458
300.408
300.366
300.33
300.301
300.28
300.265
300.254
300.246
300.241
300.237
300.235
300.233
300.234
300.241
300.259
300.304
300.406
300.893
300.876
300.86
300.844
300.828
300.806
300.777
300.736
300.682
300.618
300.55
300.484
300.426
300.375
300.333
300.296
300.268
300.248
300.235
300.225
300.22
300.217
300.215
300.215
300.217
300.22
300.233
300.263
300.333
300.48
300.801
300.783
300.768
300.755
300.742
300.724
300.698
300.66
300.609
300.549
300.485
300.424
300.369
300.322
300.283
300.249
300.225
300.208
300.196
300.189
300.185
300.183
300.183
300.185
300.187
300.193
300.211
300.258
300.359
300.553
300.636
300.626
300.619
300.613
300.605
300.592
300.572
300.54
300.497
300.446
300.391
300.34
300.294
300.255
300.223
300.194
300.175
300.161
300.151
300.146
300.143
300.142
300.142
300.144
300.147
300.152
300.17
300.222
300.344
300.542
300.412
300.413
300.418
300.422
300.424
300.42
300.408
300.388
300.358
300.321
300.282
300.245
300.212
300.184
300.159
300.138
300.123
300.112
300.105
300.101
300.098
300.097
300.097
300.098
300.1
300.103
300.115
300.152
300.24
300.381
300.531
300.522
300.514
300.507
300.5
300.493
300.485
300.478
300.47
300.461
300.453
300.443
300.434
300.424
300.414
300.401
300.385
300.359
300.32
300.279
300.245
300.219
300.2
300.187
300.177
300.17
300.181
300.662
301.169
301.222
300.519
300.509
300.501
300.494
300.487
300.479
300.472
300.464
300.456
300.448
300.439
300.43
300.421
300.411
300.4
300.388
300.372
300.347
300.313
300.277
300.245
300.221
300.202
300.188
300.178
300.17
300.177
300.468
300.959
301.018
300.511
300.5
300.492
300.485
300.477
300.47
300.462
300.455
300.446
300.438
300.429
300.419
300.41
300.4
300.389
300.376
300.361
300.337
300.307
300.274
300.245
300.222
300.203
300.189
300.179
300.171
300.176
300.359
300.73
300.841
300.505
300.495