/*--------------------------------*- C++ -*----------------------------------*\
| =========                 |                                                 |
| \\      /  F ield         | OpenFOAM: The Open Source CFD Toolbox           |
|  \\    /   O peration     | Version:  5.0                                   |
|   \\  /    A nd           | Web:      www.OpenFOAM.org                      |
|    \\/     M anipulation  |                                                 |
\*---------------------------------------------------------------------------*/
FoamFile
{
    version     2.0;
    format      ascii;
    class       surfaceScalarField;
    location    "250/porous";
    object      phi;
}
// * * * * * * * * * * * * * * * * * * * * * * * * * * * * * * * * * * * * * //

dimensions      [1 0 -1 0 0 0 0];

internalField   nonuniform List<scalar> 
104700
(
7.63469e-05
2.58379e-06
8.7736e-05
4.58797e-05
1.53403e-06
2.89331e-05
3.349e-05
1.32405e-06
1.10657e-05
2.82039e-05
1.09915e-06
4.18699e-06
2.50882e-05
9.25619e-07
2.19001e-06
2.29209e-05
7.95643e-07
1.37166e-06
2.12657e-05
6.9608e-07
9.59129e-07
1.99381e-05
6.17638e-07
7.10017e-07
1.88402e-05
5.53768e-07
5.44132e-07
1.79117e-05
5.00403e-07
4.28086e-07
1.71129e-05
4.54874e-07
3.43891e-07
1.64163e-05
4.15383e-07
2.81192e-07
1.58021e-05
3.80671e-07
2.33558e-07
1.52555e-05
3.4983e-07
1.96806e-07
1.47652e-05
3.22185e-07
1.68097e-07
1.43225e-05
2.97224e-07
1.4545e-07
1.39205e-05
2.74552e-07
1.27441e-07
1.35536e-05
2.53863e-07
1.13025e-07
1.32173e-05
2.3491e-07
1.01417e-07
1.29078e-05
2.17503e-07
9.20163e-08
1.26219e-05
2.01491e-07
8.43531e-08
1.23571e-05
1.86754e-07
7.80539e-08
1.21111e-05
1.73198e-07
7.28184e-08
1.1882e-05
1.60744e-07
6.84057e-08
1.1668e-05
1.49314e-07
6.46276e-08
1.14679e-05
1.3882e-07
6.13479e-08
1.12802e-05
1.29151e-07
5.84867e-08
1.1104e-05
1.20164e-07
5.60198e-08
1.09384e-05
1.11682e-07
5.39811e-08
1.07824e-05
1.03495e-07
5.24484e-08
1.06355e-05
9.54005e-08
5.15246e-08
1.0497e-05
8.7145e-08
5.1343e-08
1.03664e-05
7.87083e-08
5.19434e-08
1.02433e-05
6.96001e-08
5.34911e-08
1.01267e-05
6.10342e-08
5.55361e-08
1.00179e-05
4.96516e-08
5.9141e-08
9.91181e-06
4.56827e-08
6.04198e-08
9.81816e-06
2.07401e-08
7.29126e-08
9.71936e-06
5.05726e-08
4.82309e-08
-5.41213e-08
2.70696e-07
7.78123e-05
1.68802e-06
8.97501e-05
4.84263e-05
1.30124e-06
2.96188e-05
3.67847e-05
1.23874e-06
1.17269e-05
3.20157e-05
1.08313e-06
4.78499e-06
2.9323e-05
9.49936e-07
2.66843e-06
2.74966e-05
8.41374e-07
1.78063e-06
2.61194e-05
7.51009e-07
1.32234e-06
2.50213e-05
6.75265e-07
1.04048e-06
2.41151e-05
6.10631e-07
8.4926e-07
2.33484e-05
5.54649e-07
7.12521e-07
2.26869e-05
5.05542e-07
6.10779e-07
2.21076e-05
4.62007e-07
5.32748e-07
2.15937e-05
4.23076e-07
4.71416e-07
2.11333e-05
3.88008e-07
4.22212e-07
2.07173e-05
3.56228e-07
3.82042e-07
2.03385e-05
3.27284e-07
3.48745e-07
1.99914e-05
3.00816e-07
3.20773e-07
1.96718e-05
2.76535e-07
2.9699e-07
1.93759e-05
2.54211e-07
2.76542e-07
1.9101e-05
2.3366e-07
2.58776e-07
1.88445e-05
2.14739e-07
2.43181e-07
1.86046e-05
1.97333e-07
2.29346e-07
1.83795e-05
1.81347e-07
2.16939e-07
1.81679e-05
1.66688e-07
2.05687e-07
1.79686e-05
1.53248e-07
1.95376e-07
1.77807e-05
1.40881e-07
1.8584e-07
1.76035e-05
1.29384e-07
1.76982e-07
1.74364e-05
1.18482e-07
1.68768e-07
1.7279e-05
1.07822e-07
1.61234e-07
1.7131e-05
9.69851e-08
1.54484e-07
1.69922e-05
8.55385e-08
1.48676e-07
1.68624e-05
7.3002e-08
1.43992e-07
1.67413e-05
5.91704e-08
1.40621e-07
1.66288e-05
4.34204e-08
1.38643e-07
1.65247e-05
2.70094e-08
1.38195e-07
1.64289e-05
6.61523e-09
1.38786e-07
1.63401e-05
-6.65349e-09
1.41103e-07
1.62596e-05
-4.26783e-08
1.43997e-07
1.61763e-05
-1.32382e-08
1.47068e-07
-1.53655e-07
2.75285e-07
7.76222e-05
1.22991e-06
8.95025e-05
4.84082e-05
1.23644e-06
2.92788e-05
3.69389e-05
1.20918e-06
1.14989e-05
3.23082e-05
1.07743e-06
4.63645e-06
2.97455e-05
9.49173e-07
2.56345e-06
2.80398e-05
8.39594e-07
1.70742e-06
2.67759e-05
7.46494e-07
1.26841e-06
2.5785e-05
6.68117e-07
9.98029e-07
2.49806e-05
6.01611e-07
8.13427e-07
2.43105e-05
5.44567e-07
6.80249e-07
2.37408e-05
4.9507e-07
5.80164e-07
2.32485e-05
4.51641e-07
5.02619e-07
2.28174e-05
4.13147e-07
4.41073e-07
2.24354e-05
3.78719e-07
3.91257e-07
2.20937e-05
3.47684e-07
3.50278e-07
2.17853e-05
3.1952e-07
3.16105e-07
2.15051e-05
2.93816e-07
2.87274e-07
2.12486e-05
2.70254e-07
2.62702e-07
2.10127e-05
2.4858e-07
2.41572e-07
2.07945e-05
2.28599e-07
2.23255e-07
2.05918e-05
2.10157e-07
2.07258e-07
2.04029e-05
1.9313e-07
1.93186e-07
2.02261e-05
1.77409e-07
1.8072e-07
2.00603e-05
1.62882e-07
1.696e-07
1.99045e-05
1.49412e-07
1.59616e-07
1.9758e-05
1.36812e-07
1.50601e-07
1.96201e-05
1.24827e-07
1.42432e-07
1.94904e-05
1.13115e-07
1.35029e-07
1.93686e-05
1.01253e-07
1.28365e-07
1.92544e-05
8.87417e-08
1.22452e-07
1.91475e-05
7.50795e-08
1.17344e-07
1.90477e-05
5.97304e-08
1.13118e-07
1.89545e-05
4.24698e-08
1.09867e-07
1.88676e-05
2.27251e-08
1.07612e-07
1.87863e-05
1.83022e-09
1.06454e-07
1.871e-05
-2.30717e-08
1.06061e-07
1.8637e-05
-4.12932e-08
1.07588e-07
1.85666e-05
-7.87159e-08
1.06408e-07
1.84934e-05
-5.70224e-08
1.17013e-07
-1.7228e-07
1.42856e-07
7.73814e-05
8.69141e-07
8.96461e-05
4.81319e-05
1.03757e-06
2.94483e-05
3.66931e-05
1.04579e-06
1.16023e-05
3.21097e-05
9.57493e-07
4.70331e-06
2.95979e-05
8.57847e-07
2.60315e-06
2.79412e-05
7.66351e-07
1.72993e-06
2.67235e-05
6.85062e-07
1.27908e-06
2.57762e-05
6.14507e-07
1.00093e-06
2.50129e-05
5.5342e-07
8.11468e-07
2.43818e-05
5.00324e-07
6.75355e-07
2.38494e-05
4.53863e-07
5.73611e-07
2.33929e-05
4.12892e-07
4.95232e-07
2.29962e-05
3.76478e-07
4.3337e-07
2.26475e-05
3.43875e-07
3.83554e-07
2.2338e-05
3.14485e-07
3.42747e-07
2.20608e-05
2.87832e-07
3.08833e-07
2.18108e-05
2.63536e-07
2.80286e-07
2.15838e-05
2.41294e-07
2.55986e-07
2.13764e-05
2.20864e-07
2.35096e-07
2.1186e-05
2.02053e-07
2.16977e-07
2.10103e-05
1.84707e-07
2.01132e-07
2.08476e-05
1.68696e-07
1.87169e-07
2.06963e-05
1.539e-07
1.74778e-07
2.05553e-05
1.40193e-07
1.63701e-07
2.04235e-05
1.27424e-07
1.53731e-07
2.03003e-05
1.15394e-07
1.44697e-07
2.01848e-05
1.03839e-07
1.36459e-07
2.00766e-05
9.2419e-08
1.28912e-07
1.99751e-05
8.07224e-08
1.21974e-07
1.988e-05
6.82771e-08
1.15594e-07
1.97907e-05
5.46196e-08
1.09749e-07
1.97067e-05
3.92739e-08
1.0443e-07
1.96275e-05
2.20791e-08
9.96552e-08
1.95522e-05
2.58759e-09
9.54093e-08
1.94801e-05
-1.78609e-08
9.17936e-08
1.94101e-05
-4.16e-08
8.84926e-08
1.93413e-05
-5.89314e-08
8.64824e-08
1.92732e-05
-9.12812e-08
8.06245e-08
1.91983e-05
-7.27127e-08
9.06635e-08
-1.56951e-07
7.83206e-08
7.72584e-05
6.76336e-07
8.96011e-05
4.79939e-05
9.27346e-07
2.93747e-05
3.65735e-05
9.71905e-07
1.14944e-05
3.20109e-05
9.16791e-07
4.6033e-06
2.95174e-05
8.35222e-07
2.51607e-06
2.78758e-05
7.52049e-07
1.65594e-06
2.66708e-05
6.74219e-07
1.2158e-06
2.57347e-05
6.04648e-07
9.45996e-07
2.49817e-05
5.43505e-07
7.62925e-07
2.43603e-05
4.90039e-07
6.31639e-07
2.38374e-05
4.43235e-07
5.33523e-07
2.33904e-05
4.02085e-07
4.57871e-07
2.30031e-05
3.65696e-07
3.98068e-07
2.26638e-05
3.33306e-07
3.49821e-07
2.23638e-05
3.04289e-07
3.10226e-07
2.20962e-05
2.78131e-07
2.77264e-07
2.18559e-05
2.54419e-07
2.49483e-07
2.16385e-05
2.32816e-07
2.25819e-07
2.14409e-05
2.13055e-07
2.05474e-07
2.12602e-05
1.9492e-07
1.8784e-07
2.10942e-05
1.78232e-07
1.72442e-07
2.09411e-05
1.62843e-07
1.58907e-07
2.07995e-05
1.48615e-07
1.46935e-07
2.0668e-05
1.35407e-07
1.36282e-07
2.05456e-05
1.23061e-07
1.26744e-07
2.04315e-05
1.11376e-07
1.18151e-07
2.03249e-05
1.001e-07
1.10361e-07
2.02251e-05
8.89226e-08
1.03249e-07
2.01316e-05
7.74788e-08
9.67124e-08
2.00439e-05
6.53614e-08
9.06673e-08
1.99613e-05
5.21854e-08
8.50468e-08
1.98832e-05
3.75701e-08
7.97978e-08
1.98089e-05
2.14313e-08
7.48882e-08
1.97378e-05
3.44765e-09
7.02814e-08
1.9669e-05
-1.51167e-08
6.60019e-08
1.96017e-05
-3.61104e-08
6.18176e-08
1.95355e-05
-5.12738e-08
5.86017e-08
1.94705e-05
-7.74616e-08
5.11798e-08
1.9399e-05
-6.28999e-08
6.17085e-08
-1.23009e-07
2.86919e-08
7.71839e-05
5.19234e-07
8.96399e-05
4.78783e-05
7.76906e-07
2.9456e-05
3.64421e-05
8.3619e-07
1.1572e-05
3.18787e-05
8.04959e-07
4.67516e-06
2.93914e-05
7.43187e-07
2.57942e-06
2.77584e-05
6.74626e-07
1.71039e-06
2.65629e-05
6.0781e-07
1.26191e-06
2.56361e-05
5.4658e-07
9.84848e-07
2.48919e-05
4.91925e-07
7.95749e-07
2.42788e-05
4.43658e-07
6.59542e-07
2.37634e-05
4.01144e-07
5.57448e-07
2.33233e-05
3.63629e-07
4.78585e-07
2.29424e-05
3.30385e-07
4.16188e-07
2.26091e-05
3.00768e-07
3.65832e-07
2.23147e-05
2.74229e-07
3.24511e-07
2.20524e-05
2.50309e-07
2.90119e-07
2.1817e-05
2.28636e-07
2.61141e-07
2.16045e-05
2.08903e-07
2.36459e-07
2.14114e-05
1.90863e-07
2.15237e-07
2.12352e-05
1.74314e-07
1.96834e-07
2.10736e-05
1.59089e-07
1.80754e-07
2.09248e-05
1.45046e-07
1.66603e-07
2.07873e-05
1.32053e-07
1.54066e-07
2.06598e-05
1.19975e-07
1.42889e-07
2.05414e-05
1.08663e-07
1.32857e-07
2.0431e-05
9.79329e-08
1.23793e-07
2.0328e-05
8.75632e-08
1.15544e-07
2.02317e-05
7.72839e-08
1.07979e-07
2.01414e-05
6.6787e-08
1.00985e-07
2.00565e-05
5.57362e-08
9.44639e-08
1.99765e-05
4.38262e-08
8.83378e-08
1.99008e-05
3.07622e-08
8.25408e-08
1.98287e-05
1.65205e-08
7.70251e-08
1.97595e-05
8.80993e-10
7.17529e-08
1.96927e-05
-1.50054e-08
6.67191e-08
1.96274e-05
-3.25664e-08
6.17804e-08
1.95633e-05
-4.48792e-08
5.76431e-08
1.95016e-05
-6.5054e-08
4.93502e-08
1.94317e-05
-5.23478e-08
5.92653e-08
-9.47876e-08
1.55716e-08
7.71344e-05
4.18799e-07
8.96327e-05
4.78011e-05
6.65806e-07
2.94444e-05
3.63597e-05
7.38728e-07
1.15389e-05
3.18013e-05
7.28503e-07
4.63483e-06
2.93215e-05
6.84087e-07
2.53887e-06
2.76961e-05
6.27791e-07
1.67223e-06
2.65073e-05
5.69485e-07
1.22714e-06
2.55861e-05
5.14086e-07
9.53664e-07
2.48466e-05
4.63515e-07
7.6797e-07
2.42372e-05
4.1824e-07
6.348e-07
2.3725e-05
3.78052e-07
5.35322e-07
2.32875e-05
3.42459e-07
4.58666e-07
2.29088e-05
3.10892e-07
3.98106e-07
2.25775e-05
2.82801e-07
3.49266e-07
2.22849e-05
2.57686e-07
3.09196e-07
2.20243e-05
2.35118e-07
2.75832e-07
2.17904e-05
2.14735e-07
2.47704e-07
2.15794e-05
1.96238e-07
2.23727e-07
2.13878e-05
1.79379e-07
2.03095e-07
2.12129e-05
1.63955e-07
1.85188e-07
2.10527e-05
1.49795e-07
1.69532e-07
2.09053e-05
1.36753e-07
1.55748e-07
2.07691e-05
1.24694e-07
1.43536e-07
2.06429e-05
1.13486e-07
1.3265e-07
2.05257e-05
1.02981e-07
1.22887e-07
2.04166e-05
9.30128e-08
1.14074e-07
2.03147e-05
8.33817e-08
1.06064e-07
2.02194e-05
7.38553e-08
9.87295e-08
2.013e-05
6.41759e-08
9.19568e-08
2.0046e-05
5.40689e-08
8.56486e-08
1.99669e-05
4.32952e-08
7.97205e-08
1.98919e-05
3.16333e-08
7.41032e-08
1.98206e-05
1.91016e-08
6.87383e-08
1.97523e-05
5.56033e-09
6.35881e-08
1.96866e-05
-7.9743e-09
5.86151e-08
1.96229e-05
-2.25802e-08
5.37411e-08
1.95612e-05
-3.26212e-08
4.95036e-08
1.9503e-05
-4.81811e-08
4.12913e-08
1.94374e-05
-3.81473e-08
5.14155e-08
-6.86891e-08
-6.10147e-11
7.71072e-05
3.33323e-07
8.9645e-05
4.77479e-05
5.50838e-07
2.94742e-05
3.62918e-05
6.23613e-07
1.15713e-05
3.17276e-05
6.24066e-07
4.66859e-06
2.92469e-05
5.91961e-07
2.57284e-06
2.76232e-05
5.46643e-07
1.70482e-06
2.64375e-05
4.97716e-07
1.25747e-06
2.552e-05
4.50162e-07
9.8138e-07
2.47843e-05
4.06175e-07
7.9305e-07
2.41787e-05
3.6649e-07
6.5739e-07
2.367e-05
3.31112e-07
5.55651e-07
2.32357e-05
2.99716e-07
4.76994e-07
2.28601e-05
2.71855e-07
4.1469e-07
2.25315e-05
2.47066e-07
3.64344e-07
2.22413e-05
2.24919e-07
3.22977e-07
2.19828e-05
2.05036e-07
2.88504e-07
2.17511e-05
1.87097e-07
2.5942e-07
2.15418e-05
1.70832e-07
2.3462e-07
2.13519e-05
1.56019e-07
2.13275e-07
2.11787e-05
1.42474e-07
1.94747e-07
2.10199e-05
1.30042e-07
1.78546e-07
2.08738e-05
1.18591e-07
1.64277e-07
2.07388e-05
1.07998e-07
1.51632e-07
2.06138e-05
9.81427e-08
1.40353e-07
2.04977e-05
8.88969e-08
1.30231e-07
2.03895e-05
8.01139e-08
1.21085e-07
2.02885e-05
7.16254e-08
1.12765e-07
2.0194e-05
6.32376e-08
1.05136e-07
2.01053e-05
5.47404e-08
9.80834e-08
2.0022e-05
4.59144e-08
9.15076e-08
1.99434e-05
3.65774e-08
8.53187e-08
1.9869e-05
2.65662e-08
7.94482e-08
1.97983e-05
1.59261e-08
7.38347e-08
1.97308e-05
4.57775e-09
6.84458e-08
1.96662e-05
-6.59869e-09
6.32225e-08
1.96039e-05
-1.84041e-08
5.81431e-08
1.9544e-05
-2.62693e-08
5.35891e-08
1.94885e-05
-3.79607e-08
4.52433e-08
1.94248e-05
-2.93448e-08
5.49284e-08
-5.12999e-08
-1.66844e-09
7.70866e-05
2.69007e-07
8.96444e-05
4.77072e-05
4.56066e-07
2.94742e-05
3.62416e-05
5.26899e-07
1.15623e-05
3.16757e-05
5.36106e-07
4.65387e-06
2.91969e-05
5.15226e-07
2.55554e-06
2.75768e-05
4.80366e-07
1.68639e-06
2.63951e-05
4.40405e-07
1.23897e-06
2.54816e-05
4.0023e-07
9.63466e-07
2.47494e-05
3.62252e-07
7.76108e-07
2.41468e-05
3.27487e-07
6.41602e-07
2.36407e-05
2.96192e-07
5.41066e-07
2.32086e-05
2.68246e-07
4.6358e-07
2.28347e-05
2.43354e-07
4.02369e-07
2.25076e-05
2.21165e-07
3.53021e-07
2.22186e-05
2.01332e-07
3.12548e-07
2.19612e-05
1.83533e-07
2.78864e-07
2.17304e-05
1.6749e-07
2.50477e-07
2.1522e-05
1.52965e-07
2.26286e-07
2.13327e-05
1.39757e-07
2.05474e-07
2.11601e-05
1.27697e-07
1.87414e-07
2.10019e-05
1.16643e-07
1.71623e-07
2.08563e-05
1.06471e-07
1.57716e-07
2.07218e-05
9.70684e-08
1.45393e-07
2.05972e-05
8.83231e-08
1.34404e-07
2.04815e-05
8.01201e-08
1.24543e-07
2.03736e-05
7.23313e-08
1.15637e-07
2.02729e-05
6.4813e-08
1.0754e-07
2.01786e-05
5.74038e-08
1.00119e-07
2.00901e-05
4.99329e-08
9.32631e-08
2.0007e-05
4.22274e-08
8.68722e-08
1.99285e-05
3.41482e-08
8.08583e-08
1.98544e-05
2.55774e-08
7.51528e-08
1.9784e-05
1.65743e-08
6.96882e-08
1.97171e-05
7.0999e-09
6.44399e-08
1.96533e-05
-2.1035e-09
5.93238e-08
1.95921e-05
-1.16286e-08
5.43679e-08
1.95339e-05
-1.7862e-08
4.98297e-08
1.9481e-05
-2.67564e-08
4.16942e-08
1.94205e-05
-2.00714e-08
5.1175e-08
-3.62655e-08
-9.53378e-09
7.7075e-05
2.11936e-07
8.96488e-05
4.76803e-05
3.65207e-07
2.94855e-05
3.62044e-05
4.27615e-07
1.15751e-05
3.16333e-05
4.39349e-07
4.66786e-06
2.91524e-05
4.25254e-07
2.57086e-06
2.75322e-05
3.98263e-07
1.70232e-06
2.63516e-05
3.66072e-07
1.25491e-06
2.54398e-05
3.3306e-07
9.79005e-07
2.47096e-05
3.01505e-07
7.90961e-07
2.4109e-05
2.72441e-07
6.55609e-07
2.36049e-05
2.46197e-07
5.54156e-07
2.31746e-05
2.22736e-07
4.7574e-07
2.28025e-05
2.01844e-07
4.13632e-07
2.2477e-05
1.83239e-07
3.63439e-07
2.21895e-05
1.66631e-07
3.22187e-07
2.19335e-05
1.51751e-07
2.87796e-07
2.17039e-05
1.38358e-07
2.58771e-07
2.14966e-05
1.26248e-07
2.3401e-07
2.13084e-05
1.15248e-07
2.1269e-07
2.11367e-05
1.05212e-07
1.94176e-07
2.09793e-05
9.6018e-08
1.77981e-07
2.08345e-05
8.75582e-08
1.63716e-07
2.07008e-05
7.97357e-08
1.5107e-07
2.05769e-05
7.24566e-08
1.39791e-07
2.04617e-05
6.56239e-08
1.29669e-07
2.03544e-05
5.91322e-08
1.20527e-07
2.02541e-05
5.28651e-08
1.12211e-07
2.01602e-05
4.66939e-08
1.04592e-07
2.00721e-05
4.04851e-08
9.75498e-08
1.99893e-05
3.41052e-08
9.09869e-08
1.99111e-05
2.74531e-08
8.48142e-08
1.98373e-05
2.04459e-08
7.89585e-08
1.97674e-05
1.31464e-08
7.33503e-08
1.9701e-05
5.54294e-09
6.79714e-08
1.96379e-05
-1.75537e-09
6.27248e-08
1.95778e-05
-9.17999e-09
5.76716e-08
1.95209e-05
-1.38991e-08
5.29625e-08
1.94698e-05
-2.04483e-08
4.4796e-08
1.94106e-05
-1.48777e-08
5.39766e-08
-2.66808e-08
-9.69358e-09
7.70659e-05
1.63594e-07
8.96492e-05
4.76591e-05
2.84859e-07
2.94871e-05
3.61757e-05
3.3775e-07
1.15733e-05
3.16013e-05
3.5061e-07
4.66307e-06
2.91199e-05
3.4239e-07
2.56427e-06
2.75008e-05
3.22913e-07
1.69442e-06
2.63223e-05
2.98447e-07
1.2462e-06
2.54128e-05
2.72675e-07
9.69888e-07
2.46849e-05
2.47614e-07
7.81772e-07
2.40865e-05
2.24256e-07
6.46583e-07
2.35843e-05
2.02986e-07
5.45446e-07
2.31557e-05
1.83854e-07
4.67446e-07
2.2785e-05
1.66743e-07
4.05801e-07
2.24607e-05
1.51461e-07
3.56088e-07
2.21742e-05
1.37793e-07
3.15311e-07
2.19191e-05
1.25532e-07
2.81374e-07
2.16901e-05
1.14492e-07
2.52776e-07
2.14835e-05
1.04508e-07
2.2841e-07
2.12958e-05
9.5442e-08
2.07451e-07
2.11246e-05
8.71734e-08
1.89266e-07
2.09677e-05
7.96014e-08
1.73368e-07
2.08232e-05
7.26364e-08
1.5937e-07
2.06898e-05
6.6198e-08
1.46966e-07
2.05661e-05
6.02082e-08
1.35907e-07
2.04512e-05
5.45871e-08
1.25983e-07
2.0344e-05
4.925e-08
1.17023e-07
2.02439e-05
4.41044e-08
1.08876e-07
2.01502e-05
3.90502e-08
1.0141e-07
2.00621e-05
3.39845e-08
9.45137e-08
1.99793e-05
2.88081e-08
8.80849e-08
1.99013e-05
2.34472e-08
8.2036e-08
1.98276e-05
1.78453e-08
7.62977e-08
1.97579e-05
1.20605e-08
7.07942e-08
1.96919e-05
6.09601e-09
6.55115e-08
1.96293e-05
4.2904e-10
6.03392e-08
1.957e-05
-5.25107e-09
5.53728e-08
1.95143e-05
-8.81308e-09
5.06814e-08
1.94648e-05
-1.36366e-08
4.26642e-08
1.94078e-05
-9.50409e-09
5.15902e-08
-1.81899e-08
-1.4505e-08
7.70605e-05
1.18922e-07
8.96509e-05
4.76453e-05
2.08343e-07
2.94917e-05
3.61555e-05
2.4902e-07
1.15785e-05
3.15776e-05
2.59885e-07
4.66868e-06
2.90944e-05
2.54857e-07
2.5707e-06
2.74749e-05
2.40971e-07
1.7015e-06
2.62966e-05
2.22998e-07
1.25368e-06
2.53879e-05
2.03799e-07
9.77573e-07
2.46611e-05
1.84989e-07
7.89472e-07
2.40638e-05
1.67386e-07
6.54153e-07
2.35627e-05
1.51331e-07
5.52777e-07
2.31352e-05
1.36888e-07
4.74462e-07
2.27655e-05
1.23982e-07
4.1246e-07
2.24421e-05
1.12471e-07
3.62369e-07
2.21565e-05
1.02195e-07
3.2121e-07
2.19021e-05
9.29949e-08
2.86903e-07
2.16739e-05
8.47251e-08
2.5795e-07
2.14679e-05
7.72589e-08
2.33252e-07
2.12809e-05
7.04874e-08
2.11983e-07
2.11103e-05
6.43183e-08
1.93513e-07
2.09538e-05
5.86724e-08
1.77357e-07
2.08099e-05
5.34812e-08
1.63124e-07
2.06769e-05
4.86824e-08
1.50507e-07
2.05536e-05
4.42168e-08
1.39254e-07
2.0439e-05
4.00245e-08
1.29155e-07
2.03322e-05
3.60424e-08
1.20036e-07
2.02323e-05
3.22027e-08
1.11744e-07
2.01388e-05
2.8433e-08
1.04147e-07
2.0051e-05
2.46599e-08
9.71311e-08
1.99684e-05
2.08136e-08
9.05929e-08
1.98906e-05
1.68437e-08
8.4443e-08
1.98171e-05
1.2714e-08
7.86114e-08
1.97477e-05
8.47291e-09
7.30224e-08
1.9682e-05
4.12894e-09
6.76639e-08
1.96199e-05
3.6736e-11
6.24137e-08
1.95613e-05
-4.01792e-09
5.73917e-08
1.95064e-05
-6.49708e-09
5.25982e-08
1.9458e-05
-9.80862e-09
4.45664e-08
1.94018e-05
-6.63346e-09
5.33035e-08
-1.26849e-08
-1.45652e-08
7.70565e-05
7.79162e-08
8.96512e-05
4.7635e-05
1.3693e-07
2.94929e-05
3.61408e-05
1.64867e-07
1.15784e-05
3.15604e-05
1.72952e-07
4.66733e-06
2.90763e-05
1.70477e-07
2.56847e-06
2.74569e-05
1.61877e-07
1.6985e-06
2.62795e-05
1.50343e-07
1.25007e-06
2.53719e-05
1.37811e-07
9.73537e-07
2.46463e-05
1.254e-07
7.85172e-07
2.40503e-05
1.13696e-07
6.49727e-07
2.35503e-05
1.02957e-07
5.48339e-07
2.31239e-05
9.32527e-08
4.70097e-07
2.27551e-05
8.45484e-08
4.08228e-07
2.24325e-05
7.67626e-08
3.5831e-07
2.21475e-05
6.97957e-08
3.17348e-07
2.18937e-05
6.35469e-08
2.83248e-07
2.1666e-05
5.79226e-08
2.54504e-07
2.14604e-05
5.28403e-08
2.30011e-07
2.12738e-05
4.8228e-08
2.08938e-07
2.11034e-05
4.4024e-08
1.90653e-07
2.09472e-05
4.01757e-08
1.74666e-07
2.08035e-05
3.66365e-08
1.60592e-07
2.06707e-05
3.3365e-08
1.48119e-07
2.05476e-05
3.03207e-08
1.37e-07
2.04331e-05
2.74632e-08
1.27024e-07
2.03264e-05
2.47509e-08
1.18018e-07
2.02266e-05
2.21388e-08
1.0983e-07
2.01331e-05
1.95792e-08
1.02329e-07
2.00454e-05
1.70249e-08
9.54023e-08
1.99628e-05
1.44309e-08
8.89473e-08
1.9885e-05
1.17661e-08
8.28733e-08
1.98116e-05
9.00847e-09
7.71119e-08
1.97423e-05
6.19286e-09
7.15871e-08
1.96768e-05
3.32761e-09
6.62871e-08
1.96151e-05
6.44958e-10
6.10804e-08
1.9557e-05
-1.98988e-09
5.61098e-08
1.95028e-05
-3.58951e-09
5.13275e-08
1.94553e-05
-5.70277e-09
4.33844e-08
1.94004e-05
-3.69197e-09
5.19589e-08
-7.60661e-09
-1.72878e-08
7.70544e-05
3.84665e-08
8.96517e-05
4.76291e-05
6.76211e-08
2.94946e-05
3.61318e-05
8.17632e-08
1.15803e-05
3.15496e-05
8.58607e-08
4.66932e-06
2.90645e-05
8.47279e-08
2.57081e-06
2.74448e-05
8.04674e-08
1.70115e-06
2.62675e-05
7.46978e-08
1.25298e-06
2.53602e-05
6.8402e-08
9.7663e-07
2.46351e-05
6.21537e-08
7.88374e-07
2.40396e-05
5.62587e-08
6.52967e-07
2.35401e-05
5.08528e-08
5.51559e-07
2.31142e-05
4.5974e-08
4.73246e-07
2.27458e-05
4.16062e-08
4.1127e-07
2.24237e-05
3.77078e-08
3.61223e-07
2.21391e-05
3.42272e-08
3.20117e-07
2.18857e-05
3.11126e-08
2.85864e-07
2.16583e-05
2.83149e-08
2.56966e-07
2.14531e-05
2.57914e-08
2.32323e-07
2.12667e-05
2.35046e-08
2.11106e-07
2.10966e-05
2.14236e-08
1.92687e-07
2.09407e-05
1.95199e-08
1.76575e-07
2.07972e-05
1.77707e-08
1.62383e-07
2.06646e-05
1.61543e-08
1.49805e-07
2.05416e-05
1.46504e-08
1.38586e-07
2.04273e-05
1.32385e-08
1.28522e-07
2.03208e-05
1.18983e-08
1.19433e-07
2.02211e-05
1.06076e-08
1.11173e-07
2.01278e-05
9.34286e-09
1.03607e-07
2.00401e-05
8.08117e-09
9.66195e-08
1.99576e-05
6.80091e-09
9.011e-08
1.98799e-05
5.48727e-09
8.39881e-08
1.98066e-05
4.13033e-09
7.81829e-08
1.97374e-05
2.74766e-09
7.26181e-08
1.96721e-05
1.34526e-09
6.72832e-08
1.96107e-05
3.81051e-11
6.20415e-08
1.95529e-05
-1.238e-09
5.70455e-08
1.94991e-05
-1.9967e-09
5.22155e-08
1.94521e-05
-2.9947e-09
4.42657e-08
1.93976e-05
-1.9389e-09
5.27437e-08
-3.81739e-09
-1.74026e-08
7.70533e-05
1.67968e-13
8.96518e-05
4.76259e-05
1.43698e-13
2.9495e-05
3.61273e-05
1.28006e-13
1.15804e-05
3.15442e-05
3.70159e-14
4.66896e-06
2.90587e-05
1.01554e-13
2.57016e-06
2.7439e-05
1.64476e-13
1.70023e-06
2.62619e-05
2.5815e-13
1.25181e-06
2.5355e-05
5.44208e-13
9.75264e-07
2.46303e-05
3.59494e-13
7.86865e-07
2.40352e-05
4.17332e-13
6.51362e-07
2.35361e-05
4.21699e-13
5.49899e-07
2.31106e-05
4.44934e-13
4.71569e-07
2.27426e-05
6.3662e-13
4.09603e-07
2.24207e-05
6.74905e-13
3.59585e-07
2.21364e-05
9.04092e-13
3.18521e-07
2.18832e-05
8.73e-13
2.84322e-07
2.1656e-05
1.41572e-12
2.55484e-07
2.14509e-05
1.75571e-12
2.30901e-07
2.12647e-05
2.12746e-12
2.09745e-07
2.10947e-05
2.47371e-12
1.91385e-07
2.09389e-05
2.97631e-12
1.75332e-07
2.07954e-05
3.77137e-12
1.61196e-07
2.06629e-05
4.43324e-12
1.48669e-07
2.05401e-05
5.1713e-12
1.375e-07
2.04258e-05
5.75265e-12
1.27482e-07
2.03193e-05
6.38332e-12
1.18439e-07
2.02197e-05
6.99402e-12
1.10219e-07
2.01263e-05
7.365e-12
1.02693e-07
2.00386e-05
7.43674e-12
9.57448e-08
1.99561e-05
7.28191e-12
8.92742e-08
1.98784e-05
6.4689e-12
8.3189e-08
1.98051e-05
5.64054e-12
7.74198e-08
1.9736e-05
3.95563e-12
7.18897e-08
1.96707e-05
2.20538e-12
6.65879e-08
1.96094e-05
3.84437e-13
6.13767e-08
1.95518e-05
-1.07979e-12
5.64145e-08
1.94982e-05
-3.07768e-12
5.1604e-08
1.94515e-05
-2.42216e-12
4.37027e-08
1.93974e-05
-5.43807e-12
5.21237e-08
4.15234e-12
-1.84679e-08
7.70533e-05
-3.84661e-08
8.96518e-05
4.76259e-05
-6.76206e-08
2.9495e-05
3.61273e-05
-8.17625e-08
1.15804e-05
3.15442e-05
-8.58601e-08
4.66896e-06
2.90587e-05
-8.47272e-08
2.57016e-06
2.7439e-05
-8.04669e-08
1.70023e-06
2.62619e-05
-7.46973e-08
1.25181e-06
2.5355e-05
-6.84016e-08
9.75264e-07
2.46303e-05
-6.21531e-08
7.86865e-07
2.40352e-05
-5.6258e-08
6.51362e-07
2.35361e-05
-5.08522e-08
5.499e-07
2.31106e-05
-4.59731e-08
4.7157e-07
2.27426e-05
-4.16052e-08
4.09603e-07
2.24207e-05
-3.77066e-08
3.59584e-07
2.21364e-05
-3.42258e-08
3.18521e-07
2.18832e-05
-3.11103e-08
2.84323e-07
2.1656e-05
-2.83123e-08
2.55484e-07
2.14509e-05
-2.57882e-08
2.30901e-07
2.12647e-05
-2.35007e-08
2.09745e-07
2.10947e-05
-2.14184e-08
1.91385e-07
2.09389e-05
-1.9514e-08
1.75331e-07
2.07954e-05
-1.77635e-08
1.61196e-07
2.06629e-05
-1.61455e-08
1.48669e-07
2.05401e-05
-1.46402e-08
1.37501e-07
2.04258e-05
-1.32269e-08
1.27482e-07
2.03193e-05
-1.18856e-08
1.18438e-07
2.02197e-05
-1.05937e-08
1.10219e-07
2.01263e-05
-9.32818e-09
1.02693e-07
2.00386e-05
-8.06624e-09
9.57447e-08
1.99561e-05
-6.78661e-09
8.92736e-08
1.98784e-05
-5.47425e-09
8.31884e-08
1.98051e-05
-4.11943e-09
7.7419e-08
1.9736e-05
-2.73957e-09
7.18886e-08
1.96708e-05
-1.34023e-09
6.65872e-08
1.96094e-05
-3.69347e-11
6.13763e-08
1.95518e-05
1.23626e-09
5.64132e-08
1.94982e-05
1.99142e-09
5.16034e-08
1.94515e-05
2.99064e-09
4.37021e-08
1.93974e-05
1.92907e-09
5.2124e-08
3.8264e-09
-1.84653e-08
7.70544e-05
-7.79157e-08
8.96517e-05
4.76291e-05
-1.36929e-07
2.94946e-05
3.61318e-05
-1.64867e-07
1.15803e-05
3.15496e-05
-1.72951e-07
4.66932e-06
2.90645e-05
-1.70477e-07
2.57081e-06
2.74448e-05
-1.61876e-07
1.70115e-06
2.62675e-05
-1.50342e-07
1.25298e-06
2.53602e-05
-1.37811e-07
9.7663e-07
2.46351e-05
-1.25399e-07
7.88375e-07
2.40396e-05
-1.13695e-07
6.52967e-07
2.35401e-05
-1.02956e-07
5.51558e-07
2.31142e-05
-9.32514e-08
4.73246e-07
2.27458e-05
-8.45471e-08
4.11271e-07
2.24237e-05
-7.67612e-08
3.61223e-07
2.21391e-05
-6.97941e-08
3.20116e-07
2.18857e-05
-6.3545e-08
2.85864e-07
2.16583e-05
-5.79204e-08
2.56967e-07
2.14531e-05
-5.28376e-08
2.32323e-07
2.12667e-05
-4.82243e-08
2.11107e-07
2.10966e-05
-4.40194e-08
1.92688e-07
2.09407e-05
-4.01698e-08
1.76574e-07
2.07972e-05
-3.66296e-08
1.62383e-07
2.06646e-05
-3.33566e-08
1.49804e-07
2.05416e-05
-3.03108e-08
1.38586e-07
2.04273e-05
-2.74522e-08
1.28522e-07
2.03208e-05
-2.47384e-08
1.19433e-07
2.02211e-05
-2.21252e-08
1.11172e-07
2.01278e-05
-1.9565e-08
1.03606e-07
2.00401e-05
-1.70104e-08
9.66184e-08
1.99576e-05
-1.44167e-08
9.01088e-08
1.98799e-05
-1.17532e-08
8.39884e-08
1.98066e-05
-8.99783e-09
7.8183e-08
1.97374e-05
-6.18475e-09
7.26181e-08
1.96721e-05
-3.32207e-09
6.72817e-08
1.96107e-05
-6.4268e-10
6.20397e-08
1.95529e-05
1.98948e-09
5.70439e-08
1.94991e-05
3.58579e-09
5.22149e-08
1.94521e-05
5.70045e-09
4.42658e-08
1.93976e-05
3.68417e-09
5.27432e-08
7.61656e-09
-1.73965e-08
7.70565e-05
-1.18922e-07
8.96512e-05
4.7635e-05
-2.08343e-07
2.94929e-05
3.61408e-05
-2.4902e-07
1.15784e-05
3.15604e-05
-2.59884e-07
4.66733e-06
2.90763e-05
-2.54857e-07
2.56847e-06
2.74569e-05
-2.4097e-07
1.6985e-06
2.62795e-05
-2.22997e-07
1.25007e-06
2.53719e-05
-2.03798e-07
9.73538e-07
2.46463e-05
-1.84988e-07
7.85172e-07
2.40503e-05
-1.67386e-07
6.49726e-07
2.35503e-05
-1.5133e-07
5.48338e-07
2.31239e-05
-1.36887e-07
4.70097e-07
2.27551e-05
-1.2398e-07
4.08228e-07
2.24325e-05
-1.1247e-07
3.5831e-07
2.21475e-05
-1.02194e-07
3.17349e-07
2.18937e-05
-9.29931e-08
2.83248e-07
2.1666e-05
-8.47228e-08
2.54504e-07
2.14604e-05
-7.72562e-08
2.3001e-07
2.12738e-05
-7.04842e-08
2.08937e-07
2.11034e-05
-6.4314e-08
1.90652e-07
2.09472e-05
-5.8667e-08
1.74667e-07
2.08035e-05
-5.34748e-08
1.60592e-07
2.06707e-05
-4.86745e-08
1.4812e-07
2.05476e-05
-4.42076e-08
1.37001e-07
2.04331e-05
-4.00139e-08
1.27025e-07
2.03264e-05
-3.60304e-08
1.18017e-07
2.02266e-05
-3.21897e-08
1.09829e-07
2.01332e-05
-2.84194e-08
1.02329e-07
2.00454e-05
-2.46462e-08
9.54009e-08
1.99628e-05
-2.07999e-08
8.89454e-08
1.9885e-05
-1.6831e-08
8.28722e-08
1.98116e-05
-1.27031e-08
7.71113e-08
1.97423e-05
-8.46396e-09
7.15853e-08
1.96768e-05
-4.12269e-09
6.62852e-08
1.96151e-05
-3.316e-11
6.10794e-08
1.9557e-05
4.0192e-09
5.61074e-08
1.95028e-05
6.49544e-09
5.13265e-08
1.94553e-05
9.80822e-09
4.33823e-08
1.94004e-05
6.62872e-09
5.19587e-08
1.26965e-08
-1.7279e-08
7.70605e-05
-1.63594e-07
8.96509e-05
4.76453e-05
-2.84858e-07
2.94917e-05
3.61555e-05
-3.3775e-07
1.15785e-05
3.15776e-05
-3.5061e-07
4.66868e-06
2.90944e-05
-3.42389e-07
2.5707e-06
2.74749e-05
-3.22913e-07
1.7015e-06
2.62966e-05
-2.98447e-07
1.25368e-06
2.53879e-05
-2.72674e-07
9.77573e-07
2.46611e-05
-2.47614e-07
7.89473e-07
2.40638e-05
-2.24256e-07
6.54153e-07
2.35627e-05
-2.02985e-07
5.52778e-07
2.31352e-05
-1.83854e-07
4.74462e-07
2.27655e-05
-1.66743e-07
4.1246e-07
2.24421e-05
-1.5146e-07
3.62369e-07
2.21565e-05
-1.37791e-07
3.21211e-07
2.19021e-05
-1.2553e-07
2.86903e-07
2.16739e-05
-1.1449e-07
2.57949e-07
2.14679e-05
-1.04506e-07
2.33251e-07
2.12809e-05
-9.54387e-08
2.11982e-07
2.11103e-05
-8.71696e-08
1.93514e-07
2.09538e-05
-7.95964e-08
1.77356e-07
2.08099e-05
-7.26304e-08
1.63124e-07
2.06769e-05
-6.61906e-08
1.50506e-07
2.05536e-05
-6.01996e-08
1.39253e-07
2.0439e-05
-5.45773e-08
1.29154e-07
2.03322e-05
-4.92391e-08
1.20036e-07
2.02323e-05
-4.40924e-08
1.11744e-07
2.01388e-05
-3.90375e-08
1.04147e-07
2.0051e-05
-3.39714e-08
9.71297e-08
1.99684e-05
-2.87952e-08
9.05918e-08
1.98906e-05
-2.34349e-08
8.4442e-08
1.98171e-05
-1.78342e-08
7.86105e-08
1.97477e-05
-1.20511e-08
7.30208e-08
1.9682e-05
-6.08865e-09
6.76629e-08
1.962e-05
-4.23795e-10
6.24121e-08
1.95613e-05
5.25423e-09
5.73893e-08
1.95064e-05
8.81454e-09
5.2597e-08
1.9458e-05
1.36392e-08
4.45647e-08
1.94018e-05
9.50296e-09
5.33023e-08
1.82035e-08
-1.45521e-08
7.70659e-05
-2.11936e-07
8.96492e-05
4.76591e-05
-3.65207e-07
2.94871e-05
3.61757e-05
-4.27615e-07
1.15733e-05
3.16013e-05
-4.39348e-07
4.66307e-06
2.91199e-05
-4.25254e-07
2.56427e-06
2.75008e-05
-3.98262e-07
1.69442e-06
2.63223e-05
-3.66071e-07
1.2462e-06
2.54128e-05
-3.3306e-07
9.69889e-07
2.46849e-05
-3.01505e-07
7.81772e-07
2.40865e-05
-2.7244e-07
6.46582e-07
2.35843e-05
-2.46196e-07
5.45447e-07
2.31557e-05
-2.22736e-07
4.67446e-07
2.2785e-05
-2.01843e-07
4.058e-07
2.24607e-05
-1.83238e-07
3.56088e-07
2.21742e-05
-1.6663e-07
3.1531e-07
2.19191e-05
-1.51749e-07
2.81374e-07
2.16902e-05
-1.38356e-07
2.52775e-07
2.14835e-05
-1.26245e-07
2.28411e-07
2.12958e-05
-1.15245e-07
2.0745e-07
2.11246e-05
-1.05209e-07
1.89266e-07
2.09677e-05
-9.60138e-08
1.73367e-07
2.08232e-05
-8.75529e-08
1.59369e-07
2.06898e-05
-7.97293e-08
1.46966e-07
2.05661e-05
-7.2449e-08
1.35907e-07
2.04512e-05
-6.56152e-08
1.25983e-07
2.0344e-05
-5.91222e-08
1.17023e-07
2.02439e-05
-5.28538e-08
1.08875e-07
2.01502e-05
-4.66818e-08
1.01409e-07
2.00622e-05
-4.04725e-08
9.45123e-08
1.99794e-05
-3.4093e-08
8.80833e-08
1.99013e-05
-2.7441e-08
8.20345e-08
1.98276e-05
-2.04345e-08
7.62947e-08
1.97579e-05
-1.31359e-08
7.07913e-08
1.96919e-05
-5.53397e-09
6.55102e-08
1.96293e-05
1.76285e-09
6.03367e-08
1.957e-05
9.18606e-09
5.53713e-08
1.95143e-05
1.3904e-08
5.06794e-08
1.94648e-05
2.04539e-08
4.26629e-08
1.94078e-05
1.48807e-08
5.1589e-08
2.66959e-08
-1.44891e-08
7.7075e-05
-2.69006e-07
8.96488e-05
4.76803e-05
-4.56066e-07
2.94855e-05
3.62044e-05
-5.26898e-07
1.15751e-05
3.16333e-05
-5.36105e-07
4.66786e-06
2.91524e-05
-5.15225e-07
2.57086e-06
2.75322e-05
-4.80366e-07
1.70232e-06
2.63516e-05
-4.40405e-07
1.25491e-06
2.54398e-05
-4.00229e-07
9.79004e-07
2.47096e-05
-3.62251e-07
7.90961e-07
2.4109e-05
-3.27486e-07
6.55609e-07
2.36049e-05
-2.96192e-07
5.54156e-07
2.31746e-05
-2.68246e-07
4.75741e-07
2.28025e-05
-2.43353e-07
4.13632e-07
2.2477e-05
-2.21164e-07
3.6344e-07
2.21895e-05
-2.0133e-07
3.22188e-07
2.19335e-05