/*--------------------------------*- C++ -*----------------------------------*\
| =========                 |                                                 |
| \\      /  F ield         | OpenFOAM: The Open Source CFD Toolbox           |
|  \\    /   O peration     | Version:  5.0                                   |
|   \\  /    A nd           | Web:      www.OpenFOAM.org                      |
|    \\/     M anipulation  |                                                 |
\*---------------------------------------------------------------------------*/
FoamFile
{
    version     2.0;
    format      ascii;
    class       volScalarField;
    location    "250/porous";
    object      T;
}
// * * * * * * * * * * * * * * * * * * * * * * * * * * * * * * * * * * * * * //

dimensions      [0 0 0 1 0 0 0];

internalField   nonuniform List<scalar> 
36000
(
400
400
400
400
399.999
399.573
399.192
398.84
398.506
398.184
397.871
397.564
397.262
396.964
396.668
396.375
396.084
395.794
395.508
395.225
394.945
394.666
394.388
394.111
393.835
393.56
393.286
393.015
392.744
392.475
392.208
391.944
391.683
391.426
391.178
391.716
392.08
392.356
392.58
392.773
400
400
400
400
399.999
399.623
399.288
398.98
398.691
398.416
398.15
397.892
397.639
397.391
397.147
396.906
396.668
396.432
396.2
395.971
395.745
395.522
395.299
395.077
394.857
394.639
394.422
394.207
393.993
393.781
393.571
393.363
393.159
392.959
392.764
393.121
393.373
393.57
393.728
393.87
400
400
400
400
399.999
399.63
399.302
399.004
398.727
398.464
398.212
397.969
397.733
397.502
397.276
397.054
396.835
396.62
396.409
396.202
395.999
395.799
395.6
395.403
395.208
395.015
394.825
394.636
394.45
394.265
394.082
393.902
393.726
393.553
393.386
393.716
393.952
394.136
394.285
394.413
400
400
400
400
399.999
399.628
399.301
399.004
398.728
398.467
398.218
397.979
397.746
397.52
397.297
397.08
396.866
396.657
396.452
396.251
396.054
395.861
395.669
395.479
395.291
395.107
394.925
394.746
394.569
394.393
394.22
394.049
393.882
393.718
393.559
393.881
394.114
394.294
394.441
394.566
400
400
400
400
399.999
399.628
399.3
399.003
398.728
398.467
398.219
397.98
397.748
397.522
397.3
397.083
396.871
396.663
396.459
396.259
396.063
395.871
395.681
395.493
395.307
395.125
394.946
394.77
394.595
394.423
394.252
394.084
393.92
393.759
393.603
393.923
394.154
394.334
394.481
394.605
400
400
400
400
399.999
399.626
399.298
399
398.724
398.464
398.215
397.976
397.744
397.517
397.295
397.077
396.865
396.656
396.452
396.252
396.056
395.863
395.673
395.485
395.3
395.118
394.939
394.763
394.59
394.418
394.249
394.082
393.918
393.758
393.603
393.923
394.154
394.334
394.48
394.605
400
400
400
400
399.999
399.626
399.296
398.999
398.723
398.463
398.214
397.975
397.742
397.515
397.292
397.075
396.861
396.653
396.448
396.247
396.05
395.857
395.666
395.479
395.293
395.111
394.932
394.757
394.583
394.412
394.243
394.076
393.913
393.753
393.598
393.919
394.15
394.33
394.476
394.601
400
400
400
400
399.999
399.625
399.295
398.997
398.721
398.461
398.212
397.972
397.739
397.511
397.288
397.07
396.856
396.647
396.442
396.24
396.042
395.848
395.657
395.469
395.284
395.101
394.922
394.746
394.573
394.401
394.232
394.066
393.903
393.744
393.589
393.909
394.141
394.32
394.467
394.592
400
400
400
400
399.999
399.625
399.295
398.997
398.721
398.461
398.212
397.972
397.739
397.511
397.287
397.069
396.855
396.645
396.438
396.236
396.038
395.843
395.651
395.463
395.278
395.095
394.916
394.74
394.566
394.395
394.225
394.059
393.897
393.738
393.583
393.903
394.135
394.315
394.462
394.586
400
400
400
400
399.999
399.624
399.295
398.997
398.721
398.461
398.212
397.972
397.738
397.51
397.286
397.067
396.852
396.641
396.434
396.231
396.032
395.836
395.644
395.456
395.27
395.088
394.908
394.732
394.558
394.387
394.217
394.051
393.889
393.73
393.575
393.896
394.128
394.307
394.454
394.579
400
400
400
400
399.999
399.625
399.295
398.997
398.722
398.461
398.213
397.973
397.739
397.51
397.287
397.067
396.852
396.64
396.432
396.228
396.029
395.832
395.64
395.451
395.266
395.084
394.904
394.727
394.553
394.382
394.213
394.047
393.885
393.726
393.571
393.892
394.124
394.303
394.45
394.575
400
400
400
400
399.999
399.625
399.295
398.998
398.722
398.462
398.213
397.972
397.739
397.51
397.286
397.066
396.85
396.638
396.429
396.226
396.026
395.829
395.636
395.447
395.262
395.079
394.9
394.723
394.549
394.378
394.209
394.043
393.881
393.722
393.567
393.888
394.119
394.299
394.446
394.571
400
400
400
400
399.999
399.625
399.296
398.999
398.723
398.462
398.213
397.972
397.738
397.51
397.286
397.065
396.849
396.636
396.428
396.225
396.026
395.829
395.635
395.446
395.261
395.079
394.899
394.723
394.549
394.377
394.208
394.043
393.881
393.723
393.567
393.887
394.119
394.299
394.445
394.57
400
400
400
400
399.999
399.626
399.297
399
398.724
398.462
398.212
397.97
397.736
397.507
397.283
397.063
396.847
396.635
396.427
396.224
396.025
395.829
395.635
395.446
395.26
395.078
394.899
394.723
394.549
394.378
394.209
394.044
393.882
393.723
393.567
393.887
394.119
394.298
394.445
394.569
400
400
400
400
399.999
399.626
399.298
399.001
398.724
398.461
398.21
397.968
397.734
397.505
397.281
397.061
396.845
396.633
396.426
396.223
396.024
395.828
395.635
395.446
395.26
395.078
394.9
394.724
394.551
394.38
394.212
394.046
393.885
393.725
393.568
393.888
394.12
394.299
394.446
394.571
400
400
400
400
399.999
399.627
399.3
399.002
398.724
398.461
398.209
397.966
397.731
397.502
397.278
397.058
396.843
396.631
396.424
396.222
396.023
395.827
395.634
395.445
395.259
395.078
394.9
394.725
394.553
394.383
394.215
394.05
393.888
393.728
393.569
393.89
394.121
394.3
394.447
394.571
400
400
400
400
399.999
399.628
399.3
399.002
398.723
398.46
398.207
397.965
397.729
397.5
397.276
397.057
396.841
396.629
396.423
396.22
396.021
395.825
395.632
395.443
395.258
395.077
394.9
394.726
394.554
394.385
394.217
394.053
393.89
393.729
393.57
393.89
394.122
394.301
394.448
394.572
400
400
400
400
399.999
399.628
399.301
399.002
398.723
398.459
398.207
397.964
397.728
397.499
397.275
397.056
396.841
396.629
396.422
396.22
396.021
395.824
395.631
395.443
395.258
395.078
394.901
394.727
394.556
394.387
394.22
394.055
393.893
393.731
393.571
393.891
394.123
394.303
394.449
394.573
400
400
400
400
399.999
399.629
399.301
399.002
398.723
398.459
398.207
397.964
397.728
397.499
397.275
397.056
396.842
396.63
396.422
396.22
396.021
395.824
395.631
395.443
395.259
395.079
394.902
394.728
394.558
394.389
394.222
394.057
393.894
393.731
393.571
393.892
394.124
394.303
394.45
394.574
400
400
400
400
399.999
399.629
399.301
399.002
398.723
398.46
398.208
397.965
397.729
397.5
397.277
397.058
396.844
396.633
396.426
396.223
396.024
395.828
395.636
395.448
395.264
395.083
394.906
394.732
394.562
394.393
394.226
394.061
393.898
393.734
393.574
393.895
394.127
394.307
394.453
394.578
400
400
400
400
399.999
399.629
399.301
399.003
398.724
398.46
398.208
397.966
397.731
397.502
397.278
397.06
396.846
396.636
396.43
396.228
396.029
395.833
395.642
395.454
395.269
395.088
394.911
394.736
394.566
394.397
394.229
394.064
393.9
393.737
393.576
393.897
394.129
394.309
394.456
394.58
400
400
400
400
399.999
399.63
399.302
399.003
398.725
398.461
398.21
397.968
397.734
397.505
397.282
397.064
396.851
396.642
396.436
396.234
396.036
395.841
395.65
395.462
395.277
395.096
394.918
394.744
394.572
394.403
394.235
394.07
393.906
393.742
393.581
393.903
394.135
394.315
394.462
394.587
400
400
400
400
399.999
399.63
399.302
399.004
398.726
398.463
398.212
397.97
397.736
397.508
397.285
397.067
396.854
396.646
396.441
396.24
396.042
395.848
395.656
395.468
395.284
395.102
394.924
394.749
394.578
394.408
394.24
394.074
393.91
393.747
393.586
393.907
394.14
394.32
394.467
394.591
400
400
400
400
399.999
399.63
399.303
399.005
398.727
398.465
398.214
397.974
397.741
397.513
397.291
397.073
396.861
396.653
396.449
396.249
396.051
395.857
395.666
395.478
395.293
395.112
394.933
394.759
394.587
394.417
394.249
394.083
393.919
393.755
393.595
393.916
394.148
394.328
394.475
394.6
400
400
400
400
399.999
399.631
399.304
399.006
398.728
398.466
398.216
397.976
397.743
397.516
397.294
397.077
396.865
396.658
396.455
396.255
396.058
395.864
395.673
395.485
395.3
395.118
394.94
394.765
394.593
394.422
394.254
394.087
393.923
393.759
393.598
393.92
394.152
394.332
394.479
394.603
400
400
400
400
399.999
399.632
399.305
399.008
398.731
398.469
398.22
397.98
397.748
397.522
397.3
397.084
396.872
396.666
396.463
396.264
396.066
395.872
395.681
395.492
395.307
395.125
394.946
394.771
394.597
394.426
394.256
394.089
393.924
393.76
393.599
393.92
394.152
394.332
394.479
394.603
400
400
400
400
399.999
399.632
399.306
399.008
398.731
398.469
398.22
397.979
397.747
397.52
397.298
397.081
396.869
396.661
396.458
396.257
396.058
395.862
395.669
395.478
395.29
395.106
394.925
394.747
394.57
394.395
394.223
394.052
393.884
393.718
393.555
393.878
394.112
394.292
394.439
394.564
400
400
400
400
399.999
399.633
399.306
399.008
398.73
398.466
398.213
397.97
397.734
397.503
397.278
397.056
396.839
396.626
396.417
396.21
396.004
395.801
395.6
395.401
395.206
395.014
394.824
394.636
394.45
394.266
394.084
393.904
393.728
393.553
393.383
393.713
393.95
394.134
394.284
394.411
400
400
400
400
399.999
399.626
399.292
398.984
398.694
398.418
398.152
397.893
397.641
397.393
397.15
396.909
396.673
396.439
396.208
395.98
395.751
395.524
395.299
395.075
394.855
394.637
394.42
394.206
393.993
393.781
393.572
393.364
393.16
392.959
392.762
393.119
393.372
393.569
393.728
393.869
400
400
400
400
399.999
399.576
399.196
398.843
398.509
398.186
397.873
397.566
397.264
396.966
396.671
396.379
396.09
395.803
395.519
395.235
394.952
394.669
394.387
394.108
393.831
393.556
393.283
393.012
392.743
392.475
392.208
391.945
391.684
391.426
391.175
391.715
392.078
392.355
392.58
392.773
400
400
400
400
399.999
399.773
399.519
399.249
398.969
398.685
398.399
398.113
397.827
397.541
397.256
396.972
396.688
396.405
396.124
395.844
395.567
395.29
395.015
394.739
394.465
394.192
393.919
393.648
393.378
393.109
392.842
392.577
392.315
392.055
391.802
392.053
392.294
392.509
392.699
392.868
400
400
400
400
400
399.805
399.59
399.364
399.131
398.895
398.659
398.424
398.19
397.958
397.727
397.497
397.268
397.042
396.817
396.594
396.373
396.154
395.937
395.72
395.504
395.289
395.076
394.864
394.653
394.444
394.236
394.031
393.828
393.628
393.432
393.55
393.677
393.802
393.917
394.028
400
400
400
400
400
399.81
399.601
399.383
399.16
398.937
398.714
398.494
398.276
398.061
397.847
397.636
397.428
397.221
397.018
396.817
396.619
396.423
396.229
396.036
395.845
395.656
395.469
395.284
395.1
394.918
394.738
394.56
394.384
394.212
394.044
394.15
394.264
394.376
394.481
394.578
400
400
400
400
400
399.809
399.6
399.382
399.161
398.94
398.72
398.502
398.288
398.076
397.867
397.66
397.457
397.256
397.058
396.863
396.672
396.482
396.295
396.11
395.926
395.745
395.567
395.39
395.215
395.042
394.871
394.702
394.536
394.373
394.213
394.316
394.426
394.535
394.637
394.731
400
400
400
400
400
399.808
399.599
399.382
399.161
398.94
398.72
398.504
398.29
398.079
397.87
397.664
397.462
397.262
397.065
396.872
396.681
396.493
396.308
396.124
395.943
395.764
395.587
395.413
395.242
395.071
394.903
394.737
394.574
394.413
394.256
394.358
394.468
394.576
394.677
394.771
400
400
400
400
400
399.808
399.598
399.379
399.158
398.936
398.716
398.499
398.285
398.074
397.865
397.659
397.456
397.256
397.059
396.865
396.674
396.486
396.301
396.117
395.936
395.757
395.581
395.407
395.236
395.067
394.899
394.734
394.571
394.412
394.255
394.357
394.467
394.575
394.677
394.771
400
400
400
400
400
399.807
399.597
399.378
399.157
398.935
398.715
398.498
398.284
398.072
397.863
397.656
397.453
397.253
397.055
396.861
396.67
396.481
396.295
396.111
395.93
395.751
395.575
395.401
395.23
395.061
394.893
394.729
394.566
394.407
394.251
394.353
394.463
394.571
394.673
394.767
400
400
400
400
400
399.807
399.596
399.377
399.155
398.933
398.713
398.495
398.281
398.068
397.858
397.652
397.448
397.247
397.049
396.854
396.662
396.473
396.286
396.102
395.921
395.742
395.565
395.391
395.22
395.05
394.883
394.718
394.556
394.397
394.241
394.343
394.454
394.562
394.663
394.758
400
400
400
400
400
399.807
399.596
399.377
399.155
398.933
398.713
398.495
398.28
398.067
397.858
397.651
397.446
397.245
397.047
396.851
396.659
396.469
396.282
396.097
395.916
395.736
395.559
395.385
395.214
395.044
394.877
394.712
394.55
394.391
394.235
394.338
394.448
394.556
394.658
394.752
400
400
400
400
400
399.806
399.595
399.376
399.154
398.932
398.712
398.494
398.279
398.066
397.856
397.648
397.444
397.242
397.043
396.847
396.653
396.463
396.275
396.091
395.909
395.729
395.552
395.378
395.206
395.036
394.869
394.704
394.542
394.383
394.227
394.33
394.44
394.549
394.65
394.745
400
400
400
400
400
399.807
399.596
399.377
399.155
398.933
398.712
398.495
398.279
398.067
397.856
397.649
397.444
397.241
397.041
396.845
396.651
396.46
396.272
396.087
395.905
395.725
395.548
395.374
395.202
395.032
394.864
394.699
394.538
394.379
394.223
394.326
394.436
394.545
394.646
394.741
400
400
400
400
400
399.807
399.596
399.377
399.155
398.933
398.712
398.494
398.279
398.066
397.856
397.648
397.442
397.239
397.039
396.842
396.648
396.457
396.268
396.083
395.901
395.721
395.544
395.37
395.198
395.028
394.86
394.695
394.534
394.375
394.219
394.321
394.432
394.54
394.642
394.737
400
400
400
400
400
399.807
399.596
399.378
399.155
398.933
398.712
398.494
398.279
398.066
397.855
397.647
397.441
397.238
397.038
396.842
396.648
396.457
396.268
396.082
395.9
395.72
395.544
395.369
395.197
395.027
394.86
394.695
394.533
394.375
394.218
394.321
394.432
394.54
394.642
394.736
400
400
400
400
400
399.807
399.597
399.378
399.156
398.933
398.712
398.493
398.277
398.064
397.853
397.645
397.44
397.236
397.037
396.84
396.647
396.456
396.267
396.082
395.899
395.72
395.543
395.369
395.197
395.027
394.86
394.695
394.534
394.375
394.218
394.321
394.431
394.539
394.641
394.736
400
400
400
400
400
399.807
399.597
399.378
399.156
398.933
398.711
398.492
398.276
398.062
397.851
397.643
397.438
397.235
397.035
396.839
396.646
396.455
396.267
396.081
395.899
395.72
395.543
395.369
395.198
395.029
394.862
394.697
394.536
394.377
394.22
394.322
394.433
394.541
394.642
394.737
400
400
400
400
400
399.808
399.598
399.379
399.156
398.932
398.71
398.491
398.274
398.06
397.849
397.641
397.436
397.233
397.034
396.838
396.645
396.454
396.266
396.08
395.898
395.719
395.543
395.37
395.199
395.03
394.864
394.7
394.538
394.379
394.221
394.323
394.434
394.542
394.643
394.738
400
400
400
400
400
399.808
399.598
399.379
399.156
398.932
398.71
398.49
398.273
398.059
397.848
397.64
397.434
397.232
397.032
396.836
396.643
396.452
396.264
396.079
395.897
395.718
395.543
395.37
395.2
395.031
394.865
394.702
394.54
394.38
394.222
394.324
394.435
394.542
394.644
394.738
400
400
400
400
400
399.808
399.599
399.38
399.156
398.932
398.709
398.489
398.272
398.058
397.847
397.64
397.434
397.232
397.032
396.836
396.643
396.452
396.264
396.079
395.897
395.719
395.543
395.371
395.201
395.033
394.868
394.704
394.543
394.382
394.224
394.326
394.436
394.544
394.645
394.74
400
400
400
400
400
399.809
399.599
399.38
399.156
398.932
398.709
398.489
398.272
398.058
397.847
397.64
397.435
397.232
397.033
396.837
396.643
396.452
396.264
396.079
395.898
395.719
395.544
395.372
395.202
395.035
394.869
394.706
394.544
394.383
394.224
394.326
394.437
394.544
394.646
394.74
400
400
400
400
400
399.809
399.599
399.38
399.157
398.933
398.71
398.49
398.273
398.06
397.849
397.642
397.437
397.235
397.036
396.84
396.647
396.456
396.268
396.084
395.902
395.724
395.549
395.376
395.207
395.039
394.874
394.71
394.548
394.387
394.228
394.33
394.44
394.548
394.65
394.744
400
400
400
400
400
399.809
399.599
399.38
399.157
398.933
398.711
398.491
398.274
398.061
397.85
397.643
397.439
397.238
397.039
396.843
396.65
396.46
396.273
396.089
395.907
395.729
395.553
395.38
395.211
395.043
394.877
394.713
394.551
394.39
394.23
394.332
394.443
394.551
394.652
394.747
400
400
400
400
400
399.809
399.6
399.381
399.158
398.934
398.713
398.493
398.277
398.064
397.854
397.647
397.443
397.242
397.044
396.849
396.657
396.467
396.28
396.096
395.915
395.736
395.56
395.388
395.218
395.05
394.884
394.72
394.557
394.396
394.236
394.339
394.449
394.557
394.659
394.753
400
400
400
400
400
399.809
399.6
399.381
399.158
398.935
398.714
398.495
398.279
398.066
397.856
397.65
397.446
397.246
397.048
396.854
396.662
396.473
396.286
396.102
395.921
395.742
395.566
395.393
395.223
395.055
394.889
394.724
394.562
394.401
394.241
394.343
394.453
394.561
394.663
394.757
400
400
400
400
400
399.81
399.601
399.382
399.16
398.937
398.716
398.498
398.283
398.071
397.862
397.655
397.452
397.253
397.056
396.862
396.671
396.482
396.295
396.112
395.93
395.752
395.576
395.403
395.233
395.065
394.898
394.734
394.571
394.41
394.25
394.352
394.462
394.57
394.672
394.766
400
400
400
400
400
399.81
399.601
399.383
399.161
398.939
398.718
398.5
398.285
398.073
397.864
397.659
397.456
397.257
397.061
396.867
396.676
396.487
396.301
396.117
395.936
395.757
395.582
395.409
395.238
395.07
394.903
394.738
394.575
394.414
394.254
394.356
394.466
394.574
394.675
394.769
400
400
400
400
400
399.811
399.603
399.385
399.164
398.942
398.722
398.504
398.29
398.079
397.87
397.665
397.463
397.264
397.068
396.875
396.684
396.495
396.309
396.125
395.943
395.764
395.588
395.414
395.243
395.074
394.906
394.74
394.577
394.415
394.254
394.356
394.466
394.574
394.675
394.77
400
400
400
400
400
399.811
399.603
399.385
399.164
398.942
398.721
398.503
398.289
398.077
397.868
397.662
397.459
397.259
397.062
396.868
396.675
396.485
396.296
396.11
395.926
395.745
395.567
395.39
395.216
395.044
394.873
394.705
394.538
394.374
394.211
394.314
394.425
394.533
394.635
394.73
400
400
400
400
400
399.811
399.603
399.385
399.163
398.939
398.716
398.495
398.277
398.062
397.849
397.638
397.43
397.225
397.023
396.822
396.623
396.426
396.23
396.037
395.845
395.656
395.469
395.284
395.1
394.919
394.739
394.561
394.386
394.213
394.043
394.148
394.263
394.375
394.48
394.577
400
400
400
400
400
399.807
399.593
399.366
399.133
398.897
398.661
398.426
398.192
397.959
397.729
397.499
397.272
397.047
396.823
396.601
396.379
396.158
395.938
395.72
395.503
395.288
395.075
394.863
394.653
394.444
394.237
394.032
393.829
393.628
393.431
393.549
393.676
393.801
393.916
394.027
400
400
400
400
399.999
399.775
399.521
399.251
398.971
398.687
398.401
398.115
397.829
397.543
397.259
396.975
396.693
396.412
396.132
395.853
395.573
395.294
395.016
394.739
394.463
394.189
393.917
393.646
393.377
393.109
392.842
392.578
392.315
392.056
391.8
392.052
392.292
392.508
392.698
392.867
400
400
400
400
400
399.858
399.696
399.516
399.32
399.11
398.89
398.661
398.424
398.182
397.935
397.684
397.43
397.173
396.915
396.655
396.396
396.135
395.874
395.612
395.35
395.087
394.825
394.562
394.301
394.039
393.778
393.518
393.26
393.003
392.75
392.823
392.918
393.022
393.13
393.232
400
400
400
400
400
399.878
399.742
399.594
399.435
399.267
399.092
398.911
398.725
398.536
398.343
398.148
397.951
397.753
397.554
397.354
397.155
396.955
396.756
396.556
396.355
396.156
395.956
395.757
395.559
395.361
395.163
394.967
394.773
394.581
394.391
394.393
394.41
394.44
394.476
394.521
400
400
400
400
400
399.88
399.749
399.607
399.455
399.297
399.133
398.965
398.794
398.62
398.444
398.267
398.089
397.911
397.732
397.554
397.377
397.2
397.024
396.848
396.672
396.498
396.324
396.151
395.979
395.808
395.639
395.47
395.304
395.139
394.977
394.981
394.997
395.022
395.054
395.091
400
400
400
400
400
399.88
399.748
399.606
399.456
399.299
399.137
398.972
398.803
398.633
398.461
398.288
398.115
397.941
397.768
397.596
397.425
397.255
397.085
396.916
396.748
396.581
396.416
396.251
396.088
395.926
395.765
395.605
395.448
395.292
395.139
395.144
395.16
395.184
395.214
395.249
400
400
400
400
400
399.88
399.748
399.606
399.456
399.3
399.138
398.973
398.805
398.636
398.464
398.292
398.12
397.948
397.776
397.605
397.435
397.266
397.098
396.931
396.765
396.6
396.437
396.275
396.114
395.955
395.797
395.64
395.485
395.333
395.182
395.187
395.204
395.228
395.258
395.292
400
400
400
400
400
399.879
399.747
399.604
399.454
399.297
399.135
398.969
398.801
398.631
398.459
398.287
398.114
397.942
397.77
397.599
397.429
397.26
397.092
396.925
396.759
396.594
396.431
396.27
396.11
395.951
395.793
395.637
395.483
395.331
395.181
395.187
395.203
395.228
395.258
395.292
400
400
400
400
400
399.879
399.746
399.604
399.453
399.296
399.134
398.969
398.8
398.63
398.458
398.285
398.112
397.94
397.768
397.596
397.426
397.256
397.088
396.921
396.755
396.59
396.427
396.265
396.105
395.946
395.789
395.633
395.479
395.327
395.177
395.183
395.2
395.225
395.255
395.289
400
400
400
400
400
399.879
399.746
399.603
399.452
399.295
399.132
398.966
398.797
398.627
398.454
398.281
398.108
397.935
397.762
397.59
397.419
397.249
397.08
396.912
396.746
396.581
396.417
396.255
396.095
395.936
395.779
395.623
395.469
395.317
395.167
395.174
395.19
395.215
395.245
395.28
400
400
400
400
400
399.879
399.746
399.603
399.452
399.294
399.132
398.966
398.797
398.626
398.453
398.28
398.107
397.933
397.76
397.588
397.416
397.246
397.076
396.908
396.742
396.577
396.413
396.251
396.09
395.931
395.773
395.617
395.463
395.312
395.162
395.168
395.185
395.21
395.24
395.275
400
400
400
400
400
399.879
399.746
399.603
399.451
399.294
399.131
398.965
398.796
398.625
398.452
398.278
398.104
397.93
397.757
397.584
397.412
397.241
397.071
396.903
396.736
396.57
396.406
396.244
396.083
395.923
395.766
395.61
395.456
395.304
395.154
395.16
395.177
395.202
395.232
395.268
400
400
400
400
400
399.879
399.746
399.603
399.452
399.294
399.132
398.965
398.796
398.625
398.452
398.278
398.104
397.93
397.756
397.582
397.41
397.238
397.068
396.9
396.733
396.567
396.403
396.24
396.079
395.92
395.762
395.606
395.452
395.3
395.15
395.157
395.173
395.198
395.229
395.264
400
400
400
400
400
399.879
399.746
399.603
399.452
399.294
399.131
398.965
398.796
398.624
398.451
398.277
398.103
397.928
397.754
397.58
397.408
397.236
397.065
396.896
396.729
396.563
396.399
396.236
396.075
395.916
395.758
395.602
395.448
395.296
395.146
395.152
395.169
395.194
395.224
395.26
400
400
400
400
400
399.879
399.746
399.603
399.452
399.294
399.132
398.965
398.796
398.624
398.451
398.277
398.102
397.927
397.753
397.58
397.407
397.236
397.065
396.896
396.729
396.563
396.399
396.236
396.075
395.915
395.757
395.601
395.447
395.296
395.146
395.152
395.168
395.193
395.224
395.259
400
400
400
400
400
399.879
399.747
399.604
399.452
399.294
399.131
398.964
398.795
398.623
398.45
398.275
398.101
397.926
397.752
397.578
397.406
397.235
397.064
396.895
396.728
396.562
396.398
396.235
396.074
395.915
395.757
395.601
395.447
395.295
395.145
395.151
395.168
395.193
395.223
395.258
400
400
400
400
400
399.879
399.747
399.604
399.453
399.294
399.131
398.964
398.794
398.622
398.448
398.274
398.099
397.925
397.751
397.577
397.405
397.234
397.063
396.895
396.727
396.562
396.398
396.235
396.075
395.916
395.758
395.602
395.449
395.297
395.146
395.152
395.169
395.194
395.224
395.259
400
400
400
400
400
399.88
399.747
399.605
399.453
399.294
399.13
398.963
398.793
398.62
398.447
398.273
398.098
397.923
397.749
397.576
397.404
397.233
397.062
396.894
396.726
396.561
396.397
396.235
396.075
395.916
395.759
395.604
395.45
395.298
395.147
395.154
395.17
395.195
395.225
395.26
400
400
400
400
400
399.88
399.747
399.605
399.453
399.294
399.13
398.962
398.792
398.619
398.446
398.272
398.097
397.922
397.748
397.575
397.403
397.232
397.061
396.893
396.725
396.56
396.397
396.235
396.075
395.917
395.76
395.605
395.452
395.299
395.148
395.154
395.171
395.195
395.226
395.261
400
400
400
400
400
399.88
399.748
399.605
399.453
399.294
399.13
398.962
398.792
398.619
398.446
398.272
398.097
397.922
397.748
397.575
397.403
397.232
397.061
396.893
396.726
396.561
396.397
396.236
396.077
395.918
395.762
395.607
395.454
395.301
395.15
395.156
395.172
395.197
395.227
395.262
400
400
400
400
400
399.88
399.748
399.605
399.453
399.294
399.13
398.962
398.792
398.619
398.446
398.272
398.097
397.923
397.749
397.575
397.403
397.232
397.062
396.893
396.726
396.561
396.398
396.237
396.078
395.92
395.763
395.608
395.455
395.302
395.151
395.157
395.173
395.198
395.228
395.263
400
400
400
400
400
399.88
399.748
399.605
399.453
399.294
399.131
398.963
398.793
398.621
398.447
398.273
398.099
397.925
397.751
397.578
397.406
397.235
397.065
396.897
396.73
396.566
396.402
396.241
396.082
395.924
395.768
395.613
395.459
395.306
395.155
395.161
395.177
395.202
395.232
395.267
400
400
400
400
400
399.88
399.748
399.605
399.453
399.295
399.131
398.964
398.793
398.621
398.448
398.275
398.101
397.927
397.754
397.581
397.409
397.238
397.069
396.901
396.734
396.569
396.406
396.245
396.085
395.927
395.771
395.616
395.462
395.309
395.157
395.163
395.18
395.204
395.235
395.27
400
400
400
400
400
399.88
399.748
399.606
399.454
399.296
399.132
398.965
398.796
398.624
398.451
398.278
398.104
397.931
397.758
397.586
397.415
397.244
397.075
396.908
396.741
396.576
396.413
396.252
396.092
395.934
395.778
395.623
395.469
395.316
395.164
395.17
395.186
395.211
395.241
395.276
400
400
400
400
400
399.88
399.749
399.606
399.454
399.296
399.133
398.966
398.797
398.626
398.453
398.28
398.107
397.934
397.761
397.59
397.419
397.249
397.08
396.912
396.746
396.581
396.418
396.257
396.097
395.939
395.782
395.627
395.473
395.32
395.168
395.174
395.191
395.215
395.245
395.28
400
400
400
400
400
399.881
399.749
399.607
399.456
399.298
399.135
398.969
398.8
398.63
398.458
398.285
398.112
397.94
397.768
397.597
397.426
397.257
397.088
396.921
396.755
396.59
396.427
396.266
396.107
395.949
395.792
395.636
395.483
395.33
395.178
395.184
395.2
395.224
395.254
395.289
400
400
400
400
400
399.881
399.749
399.607
399.456
399.299
399.136
398.97
398.802
398.631
398.46
398.287
398.115
397.943
397.771
397.601
397.43
397.261
397.093
396.926
396.76
396.595
396.432
396.271
396.111
395.953
395.796
395.64
395.486
395.333
395.181
395.187
395.203
395.227
395.257
395.292
400
400
400
400
400
399.881
399.75
399.608
399.458
399.301
399.139
398.974
398.806
398.636
398.465
398.293
398.121
397.949
397.778
397.607
397.437
397.268
397.099
396.932
396.766
396.601
396.438
396.276
396.116
395.957
395.799
395.642
395.488
395.334
395.182
395.187
395.203
395.227
395.257
395.291
400
400
400
400
400
399.881
399.75
399.608
399.458
399.301
399.139
398.973
398.804
398.634
398.462
398.289
398.116
397.944
397.771
397.6
397.428
397.257
397.087
396.917
396.749
396.582
396.416
396.252
396.089
395.927
395.766
395.607
395.45
395.293
395.139
395.143
395.159
395.184
395.214
395.248
400
400
400
400
400
399.881
399.75
399.608
399.457
399.299
399.135
398.966
398.795
398.621
398.445
398.269
398.091
397.913
397.736
397.558
397.38
397.203
397.025
396.849
396.673
396.498
396.324
396.152
395.98
395.809
395.64
395.471
395.305
395.14
394.977
394.98
394.996
395.022
395.053
395.09
400
400
400
400
400
399.879
399.743
399.595
399.436
399.268
399.093
398.912
398.726
398.537
398.345
398.15
397.954
397.756
397.558
397.359
397.159
396.959
396.758
396.557
396.356
396.156
395.956
395.757
395.559
395.361
395.164
394.968
394.774
394.581
394.39
394.392
394.41
394.439
394.476
394.521
400
400
400
400
400
399.859
399.698
399.517
399.321
399.112
398.891
398.662
398.426
398.183
397.937
397.686
397.433
397.178
396.921
396.662
396.401
396.139
395.876
395.613
395.349
395.086
394.824
394.561
394.3
394.038
393.778
393.518
393.26
393.004
392.749
392.822
392.917
393.022
393.129
393.231
400
400
400
400
400
399.891
399.772
399.641
399.5
399.347
399.184
399.012
398.831
398.641
398.445
398.241
398.032
397.817
397.597
397.374
397.148
396.918
396.685
396.45
396.213
395.973
395.732
395.49
395.247
395.002
394.757
394.512
394.267
394.022
393.779
393.773
393.782
393.802
393.831
393.861
400
400
400
400
400
399.906
399.805
399.697
399.582
399.46
399.332
399.199
399.06
398.916
398.768
398.615
398.459
398.299
398.137
397.972
397.806
397.637
397.467
397.295
397.121
396.947
396.771
396.595
396.418
396.241
396.063
395.886
395.709
395.533
395.357
395.321
395.292
395.27
395.255
395.247
400
400
400
400
400
399.907
399.809
399.705
399.596
399.482
399.362
399.239
399.111
398.98
398.846
398.708
398.568
398.426
398.283
398.137
397.991
397.844
397.696
397.547
397.397
397.246
397.096
396.945
396.794
396.643
396.492
396.342
396.192
396.044
395.897
395.869
395.847
395.831
395.819
395.813
400
400
400
400
400
399.907
399.809
399.706
399.597
399.483
399.366
399.244
399.119
398.99
398.859
398.725
398.589
398.452
398.313
398.173
398.032
397.891
397.749
397.606
397.463
397.32
397.177
397.034
396.892
396.749
396.607
396.465
396.325
396.185
396.046
396.023
396.004
395.989
395.979
395.973
400
400
400
400
400
399.907
399.809
399.705
399.597
399.484
399.366
399.245
399.12
398.992
398.862
398.729
398.594
398.457
398.319
398.181
398.041
397.902
397.761
397.62
397.479
397.338
397.197
397.057
396.917
396.777
396.637
396.498
396.36
396.224
396.088
396.065
396.047
396.033
396.024
396.019
400
400
400
400
400
399.907
399.808
399.704
399.595
399.482
399.364
399.242
399.117
398.989
398.858
398.725
398.59
398.453
398.315
398.176
398.037
397.897
397.756
397.615
397.474
397.334
397.193
397.053
396.913
396.774
396.635
396.496
396.359
396.223
396.088
396.066
396.048
396.035
396.025
396.021
400
400
400
400
400
399.907
399.808
399.704
399.595
399.481
399.363
399.242
399.117
398.988
398.857
398.723
398.588
398.451
398.313
398.174
398.034
397.894
397.753
397.612
397.471
397.33
397.189
397.049
396.909
396.77
396.631
396.493
396.356
396.22
396.085
396.063
396.045
396.032
396.023
396.019
400
400
400
400
400
399.906
399.807
399.703
399.594
399.48
399.362
399.24
399.115
398.986
398.854
398.72
398.584
398.447
398.308
398.169
398.028
397.888
397.747
397.605
397.464
397.322
397.181
397.041
396.901
396.761
396.622
396.484
396.347
396.211
396.076
396.054
396.036
396.023
396.014
396.01
400
400