/*--------------------------------*- C++ -*----------------------------------*\
| =========                 |                                                 |
| \\      /  F ield         | OpenFOAM: The Open Source CFD Toolbox           |
|  \\    /   O peration     | Version:  5.0                                   |
|   \\  /    A nd           | Web:      www.OpenFOAM.org                      |
|    \\/     M anipulation  |                                                 |
\*---------------------------------------------------------------------------*/
FoamFile
{
    version     2.0;
    format      ascii;
    class       volVectorField;
    location    "250/porous";
    object      U;
}
// * * * * * * * * * * * * * * * * * * * * * * * * * * * * * * * * * * * * * //

dimensions      [0 1 -1 0 0 0 0];

internalField   nonuniform List<vector> 
36000
(
(0.00555056 7.02127e-05 0.000289042)
(0.00340903 4.42548e-05 6.71224e-05)
(0.00220329 3.69639e-05 1.37094e-05)
(0.00180686 3.07685e-05 1.60336e-06)
(0.00158038 2.55944e-05 1.93769e-07)
(0.00143087 2.16609e-05 -4.36075e-08)
(0.00131992 1.86587e-05 -9.92084e-08)
(0.00123221 1.63201e-05 -1.35694e-07)
(0.00116052 1.44475e-05 -1.60062e-07)
(0.00110042 1.2912e-05 -1.7295e-07)
(0.00104907 1.16278e-05 -1.77879e-07)
(0.00100455 1.05355e-05 -1.77415e-07)
(0.000965469 9.5936e-06 -1.7339e-07)
(0.000930828 8.7715e-06 -1.67045e-07)
(0.000899864 8.04664e-06 -1.59214e-07)
(0.000871988 7.40193e-06 -1.50474e-07)
(0.000846738 6.82418e-06 -1.41223e-07)
(0.000823745 6.30314e-06 -1.31743e-07)
(0.000802709 5.83073e-06 -1.22231e-07)
(0.000783383 5.4006e-06 -1.12844e-07)
(0.000765564 5.00769e-06 -1.03696e-07)
(0.00074908 4.64805e-06 -9.48915e-08)
(0.000733786 4.31857e-06 -8.65079e-08)
(0.000719557 4.01672e-06 -7.86205e-08)
(0.000706287 3.74036e-06 -7.1272e-08)
(0.000693883 3.48745e-06 -6.4492e-08)
(0.000682266 3.25586e-06 -5.82556e-08)
(0.000671366 3.04321e-06 -5.24833e-08)
(0.000661123 2.84685e-06 -4.70571e-08)
(0.000651486 2.66383e-06 -4.1779e-08)
(0.00064241 2.49178e-06 -3.65218e-08)
(0.000633851 2.32741e-06 -3.09117e-08)
(0.000625796 2.17279e-06 -2.53435e-08)
(0.000618156 2.01825e-06 -1.82646e-08)
(0.000611066 1.89407e-06 -1.4078e-08)
(0.000604048 1.71796e-06 -5.99267e-10)
(0.00059833 1.73447e-06 -1.31563e-08)
(0.000590442 1.25252e-06 5.03974e-08)
(0.000589364 2.02282e-06 -9.94933e-08)
(0.00057302 -2.04337e-07 4.90955e-07)
(0.00562429 8.38019e-05 0.000295874)
(0.00352515 5.57859e-05 6.94443e-05)
(0.00238476 4.95062e-05 1.59396e-05)
(0.00202138 4.17585e-05 3.37245e-06)
(0.00182312 3.58425e-05 1.57099e-06)
(0.00169624 3.13323e-05 1.11422e-06)
(0.0016036 2.77807e-05 9.06687e-07)
(0.00153095 2.49103e-05 7.56706e-07)
(0.00147176 2.25174e-05 6.42939e-07)
(0.00142217 2.04751e-05 5.57476e-07)
(0.00137972 1.86994e-05 4.92093e-07)
(0.00134278 1.71332e-05 4.41036e-07)
(0.00131018 1.57365e-05 4.00306e-07)
(0.00128111 1.44799e-05 3.67156e-07)
(0.00125493 1.33415e-05 3.39671e-07)
(0.00123117 1.23044e-05 3.16501e-07)
(0.00120947 1.13554e-05 2.96663e-07)
(0.00118952 1.0484e-05 2.79449e-07)
(0.0011711 9.68196e-06 2.6431e-07)
(0.00115402 8.94267e-06 2.50843e-07)
(0.00113811 8.26096e-06 2.38726e-07)
(0.00112325 7.63277e-06 2.27692e-07)
(0.00110932 7.05485e-06 2.17536e-07)
(0.00109623 6.52426e-06 2.08088e-07)
(0.00108392 6.03786e-06 1.99213e-07)
(0.00107232 5.59162e-06 1.90814e-07)
(0.00106137 5.18003e-06 1.82855e-07)
(0.00105105 4.79558e-06 1.75344e-07)
(0.00104132 4.42871e-06 1.68345e-07)
(0.00103216 4.06775e-06 1.61998e-07)
(0.00102356 3.70091e-06 1.56439e-07)
(0.0010155 3.3143e-06 1.51923e-07)
(0.00100799 2.90342e-06 1.48442e-07)
(0.00100096 2.44644e-06 1.46639e-07)
(0.000994519 1.98943e-06 1.45137e-07)
(0.000988373 1.40287e-06 1.47606e-07)
(0.000983261 1.0935e-06 1.43498e-07)
(0.000977074 -6.49534e-08 1.64757e-07)
(0.00097533 1.09324e-06 1.09352e-07)
(0.000962515 -3.69403e-06 4.73916e-07)
(0.00561665 4.31986e-05 0.000294818)
(0.00351435 3.87549e-05 6.83114e-05)
(0.00239037 3.89918e-05 1.53282e-05)
(0.00203483 3.50479e-05 2.96223e-06)
(0.00184471 3.11662e-05 1.26848e-06)
(0.00172533 2.78118e-05 8.86459e-07)
(0.00163969 2.49083e-05 7.2189e-07)
(0.00157364 2.24203e-05 5.97654e-07)
(0.00152072 2.02731e-05 4.99538e-07)
(0.00147707 1.84034e-05 4.23728e-07)
(0.00144027 1.67599e-05 3.64416e-07)
(0.00140869 1.53025e-05 3.17312e-07)
(0.00138119 1.39996e-05 2.79309e-07)
(0.00135694 1.28268e-05 2.48204e-07)
(0.00133534 1.17645e-05 2.22426e-07)
(0.00131593 1.07973e-05 2.00835e-07)
(0.00129834 9.91285e-06 1.82581e-07)
(0.00128229 9.10134e-06 1.67032e-07)
(0.00126756 8.35495e-06 1.53684e-07)
(0.00125398 7.66748e-06 1.42162e-07)
(0.00124138 7.03412e-06 1.32151e-07)
(0.00122965 6.45098e-06 1.2341e-07)
(0.0012187 5.91472e-06 1.15735e-07)
(0.00120844 5.42191e-06 1.08964e-07)
(0.0011988 4.96825e-06 1.02965e-07)
(0.00118974 4.54779e-06 9.76447e-08)
(0.00118122 4.15214e-06 9.29251e-08)
(0.0011732 3.76992e-06 8.8778e-08)
(0.00116566 3.38679e-06 8.51995e-08)
(0.00115858 2.98565e-06 8.2234e-08)
(0.00115195 2.54897e-06 7.9918e-08)
(0.00114575 2.05779e-06 7.83836e-08)
(0.00113997 1.5031e-06 7.75482e-08)
(0.00113456 8.63581e-07 7.78486e-08)
(0.00112956 1.8169e-07 7.81657e-08)
(0.00112475 -6.45015e-07 8.14322e-08)
(0.00112056 -1.25095e-06 8.04251e-08)
(0.00111556 -2.57099e-06 9.08025e-08)
(0.00111324 -1.75349e-06 7.47884e-08)
(0.00110381 -6.33756e-06 2.15931e-07)
(0.00560903 3.72179e-05 0.000295464)
(0.00349577 4.16684e-05 6.89141e-05)
(0.00237452 4.09011e-05 1.5737e-05)
(0.00202133 3.65959e-05 3.25869e-06)
(0.00183431 3.22541e-05 1.48091e-06)
(0.00171797 2.84864e-05 1.04272e-06)
(0.00163519 2.52718e-05 8.38265e-07)
(0.00157184 2.25653e-05 6.87112e-07)
(0.00152146 2.02752e-05 5.71011e-07)
(0.00148021 1.83188e-05 4.8309e-07)
(0.0014457 1.66285e-05 4.15585e-07)
(0.0014163 1.51516e-05 3.62876e-07)
(0.0013909 1.38472e-05 3.20972e-07)
(0.00136869 1.26842e-05 2.87085e-07)
(0.00134905 1.16383e-05 2.59248e-07)
(0.00133154 1.06908e-05 2.36054e-07)
(0.00131579 9.82721e-06 2.16477e-07)
(0.00130153 9.03603e-06 1.99761e-07)
(0.00128854 8.30842e-06 1.85336e-07)
(0.00127664 7.63745e-06 1.72768e-07)
(0.00126569 7.01763e-06 1.6172e-07)
(0.00125556 6.4445e-06 1.51933e-07)
(0.00124616 5.91406e-06 1.43192e-07)
(0.00123741 5.42213e-06 1.35334e-07)
(0.00122924 4.96363e-06 1.28221e-07)
(0.0012216 4.53177e-06 1.21745e-07)
(0.00121444 4.11741e-06 1.15814e-07)
(0.00120774 3.70854e-06 1.10371e-07)
(0.00120146 3.29047e-06 1.05352e-07)
(0.00119556 2.84614e-06 1.00751e-07)
(0.00119004 2.35856e-06 9.65363e-08)
(0.00118485 1.81004e-06 9.2749e-08)
(0.00117996 1.19395e-06 8.93066e-08)
(0.00117533 4.92803e-07 8.6458e-08)
(0.00117094 -2.45918e-07 8.36802e-08)
(0.00116664 -1.1119e-06 8.21285e-08)
(0.00116264 -1.74716e-06 7.90866e-08)
(0.00115814 -2.97129e-06 7.74428e-08)
(0.00115509 -2.2917e-06 7.91813e-08)
(0.00114737 -5.62547e-06 1.28618e-07)
(0.00560508 2.48873e-05 0.00029527)
(0.00348634 3.19097e-05 6.8561e-05)
(0.00236678 3.29948e-05 1.53586e-05)
(0.00201478 3.08458e-05 2.95256e-06)
(0.00182897 2.80114e-05 1.23553e-06)
(0.00171363 2.52317e-05 8.45312e-07)
(0.00163167 2.26644e-05 6.75981e-07)
(0.00156903 2.03783e-05 5.50667e-07)
(0.00151928 1.83653e-05 4.53599e-07)
(0.00147863 1.65964e-05 3.79675e-07)
(0.00144469 1.50379e-05 3.22506e-07)
(0.00141587 1.36581e-05 2.77489e-07)
(0.00139103 1.24295e-05 2.41377e-07)
(0.00136938 1.13289e-05 2.1192e-07)
(0.00135031 1.03373e-05 1.87535e-07)
(0.00133337 9.43907e-06 1.67104e-07)
(0.0013182 8.6215e-06 1.498e-07)
(0.00130452 7.87435e-06 1.35015e-07)
(0.00129212 7.18932e-06 1.22284e-07)
(0.0012808 6.55969e-06 1.11257e-07)
(0.00127043 5.97998e-06 1.01649e-07)
(0.00126088 5.44549e-06 9.32424e-08)
(0.00125206 4.95189e-06 8.58553e-08)
(0.00124388 4.4946e-06 7.9346e-08)
(0.00123628 4.06821e-06 7.35908e-08)
(0.0012292 3.66579e-06 6.84898e-08)
(0.00122258 3.27836e-06 6.39546e-08)
(0.0012164 2.89455e-06 5.99071e-08)
(0.00121061 2.50086e-06 5.62727e-08)
(0.00120519 2.082e-06 5.29971e-08)
(0.00120008 1.6232e-06 5.00208e-08)
(0.00119527 1.10963e-06 4.73137e-08)
(0.00119071 5.3697e-07 4.47981e-08)
(0.00118636 -1.0783e-07 4.25506e-08)
(0.00118218 -7.80226e-07 4.02977e-08)
(0.00117809 -1.55063e-06 3.83181e-08)
(0.00117413 -2.11291e-06 3.68999e-08)
(0.00117007 -3.11424e-06 2.98499e-08)
(0.00116654 -2.55235e-06 4.87578e-08)
(0.00116074 -4.98188e-06 3.39743e-08)
(0.005603 2.06431e-05 0.000295425)
(0.00348001 3.00625e-05 6.88203e-05)
(0.0023591 3.20574e-05 1.56022e-05)
(0.00200672 3.05767e-05 3.1746e-06)
(0.00182116 2.80205e-05 1.42759e-06)
(0.0017063 2.529e-05 1.00838e-06)
(0.00162491 2.26848e-05 8.13357e-07)
(0.00156283 2.03336e-05 6.66822e-07)
(0.00151364 1.82593e-05 5.5277e-07)
(0.0014735 1.64446e-05 4.65392e-07)
(0.00144003 1.48581e-05 3.97614e-07)
(0.00141164 1.34667e-05 3.44218e-07)
(0.0013872 1.22399e-05 3.01453e-07)
(0.00136592 1.11511e-05 2.66668e-07)
(0.0013472 1.01785e-05 2.37975e-07)
(0.00133058 9.30399e-06 2.14001e-07)
(0.00131572 8.51295e-06 1.93746e-07)
(0.00130234 7.7936e-06 1.76457e-07)
(0.00129021 7.13646e-06 1.61564e-07)
(0.00127917 6.53387e-06 1.48625e-07)
(0.00126906 5.9796e-06 1.37306e-07)
(0.00125978 5.46834e-06 1.27331e-07)
(0.00125121 4.99526e-06 1.18489e-07)
(0.00124327 4.55549e-06 1.10602e-07)
(0.00123591 4.14354e-06 1.0353e-07)
(0.00122906 3.7528e-06 9.71468e-08)
(0.00122267 3.37508e-06 9.1353e-08)
(0.0012167 3.00038e-06 8.60604e-08)
(0.00121111 2.61724e-06 8.11786e-08)
(0.00120586 2.21302e-06 7.66477e-08)
(0.00120092 1.77603e-06 7.24009e-08)
(0.00119626 1.29494e-06 6.83862e-08)
(0.00119184 7.68208e-07 6.45684e-08)
(0.00118761 1.86888e-07 6.09042e-08)
(0.00118353 -4.07241e-07 5.74592e-08)
(0.00117959 -1.06975e-06 5.36754e-08)
(0.00117567 -1.54097e-06 5.21043e-08)
(0.00117195 -2.32846e-06 4.01942e-08)
(0.00116817 -1.86814e-06 6.5451e-08)
(0.00116352 -3.57261e-06 1.51759e-08)
(0.00560161 1.56281e-05 0.000295385)
(0.00347577 2.40841e-05 6.87263e-05)
(0.00235408 2.62753e-05 1.54538e-05)
(0.00200186 2.55913e-05 3.02374e-06)
(0.00181672 2.38356e-05 1.2881e-06)
(0.00170234 2.17705e-05 8.83483e-07)
(0.00162138 1.96993e-05 7.03197e-07)
(0.00155968 1.77657e-05 5.70222e-07)
(0.00151079 1.60176e-05 4.68035e-07)
(0.0014709 1.44598e-05 3.907e-07)
(0.00143764 1.3079e-05 3.31268e-07)
(0.00140942 1.18551e-05 2.84737e-07)
(0.00138513 1.07673e-05 2.47597e-07)
(0.00136397 9.79627e-06 2.17414e-07)
(0.00134536 8.9252e-06 1.92498e-07)
(0.00132885 8.13974e-06 1.71645e-07)
(0.00131408 7.42797e-06 1.5399e-07)
(0.00130079 6.78008e-06 1.38884e-07)
(0.00128875 6.18801e-06 1.25852e-07)
(0.00127779 5.64516e-06 1.14516e-07)
(0.00126777 5.146e-06 1.04601e-07)
(0.00125856 4.68579e-06 9.58724e-08)
(0.00125008 4.26008e-06 8.81605e-08)
(0.00124222 3.86439e-06 8.1319e-08)
(0.00123494 3.49371e-06 7.52264e-08)
(0.00122816 3.14208e-06 6.97774e-08)
(0.00122184 2.80231e-06 6.48856e-08)
(0.00121593 2.46582e-06 6.0467e-08)
(0.0012104 2.12292e-06 5.64496e-08)
(0.00120521 1.76318e-06 5.27621e-08)
(0.00120032 1.3773e-06 4.93385e-08)
(0.0011957 9.56465e-07 4.61161e-08)
(0.00119132 5.00606e-07 4.30748e-08)
(0.00118715 3.65282e-09 4.00599e-08)
(0.00118312 -4.97312e-07 3.73884e-08)
(0.00117929 -1.04451e-06 3.38305e-08)
(0.00117542 -1.42397e-06 3.37506e-08)
(0.00117202 -2.02705e-06 1.99115e-08)
(0.00116811 -1.63511e-06 5.40086e-08)
(0.00116464 -2.85449e-06 -2.40351e-08)
(0.00560094 1.2886e-05 0.000295428)
(0.00347324 2.10616e-05 6.88154e-05)
(0.00235028 2.37315e-05 1.55517e-05)
(0.00199752 2.36639e-05 3.12786e-06)
(0.00181221 2.23869e-05 1.39143e-06)
(0.00169789 2.06365e-05 9.80941e-07)
(0.00161708 1.87667e-05 7.92591e-07)
(0.0015556 1.69605e-05 6.50987e-07)
(0.00150694 1.52963e-05 5.40516e-07)
(0.00146728 1.37992e-05 4.55637e-07)
(0.00143424 1.24675e-05 3.89546e-07)
(0.00140622 1.12877e-05 3.37256e-07)
(0.00138212 1.02423e-05 2.95187e-07)
(0.00136113 9.31341e-06 2.60819e-07)
(0.00134268 8.4846e-06 2.32353e-07)
(0.0013263 7.74139e-06 2.08487e-07)
(0.00131166 7.07152e-06 1.88263e-07)
(0.00129848 6.46475e-06 1.70959e-07)
(0.00128655 5.91261e-06 1.56027e-07)
(0.00127569 5.40811e-06 1.43042e-07)
(0.00126576 4.94538e-06 1.31678e-07)
(0.00125664 4.5194e-06 1.21663e-07)
(0.00124822 4.12557e-06 1.12791e-07)
(0.00124044 3.75936e-06 1.0489e-07)
(0.00123322 3.41597e-06 9.78209e-08)
(0.0012265 3.08991e-06 9.14606e-08)
(0.00122024 2.77483e-06 8.57047e-08)
(0.00121438 2.46344e-06 8.04633e-08)
(0.0012089 2.14774e-06 7.5656e-08)
(0.00120374 1.81936e-06 7.12046e-08)
(0.00119889 1.47122e-06 6.70483e-08)
(0.00119431 1.09688e-06 6.31086e-08)
(0.00118996 6.97652e-07 5.93984e-08)
(0.00118583 2.7002e-07 5.56964e-08)
(0.00118186 -1.53436e-07 5.25044e-08)
(0.00117811 -6.04308e-07 4.80901e-08)
(0.00117429 -9.0918e-07 4.80344e-08)
(0.00117114 -1.36946e-06 3.18092e-08)
(0.00116714 -1.05486e-06 6.86297e-08)
(0.00116434 -1.93323e-06 -2.76155e-08)
(0.00560043 1.0174e-05 0.000295418)
(0.00347131 1.70114e-05 6.87909e-05)
(0.0023474 1.94198e-05 1.54997e-05)
(0.00199439 1.95643e-05 3.06469e-06)
(0.00180912 1.86545e-05 1.32493e-06)
(0.00169498 1.72904e-05 9.14603e-07)
(0.00161442 1.57846e-05 7.28839e-07)
(0.00155318 1.43021e-05 5.91168e-07)
(0.00150474 1.29195e-05 4.85218e-07)
(0.00146528 1.16649e-05 4.04936e-07)
(0.00143241 1.05421e-05 3.43246e-07)
(0.00140453 9.54287e-06 2.95001e-07)
(0.00138054 8.65437e-06 2.56568e-07)
(0.00135966 7.86277e-06 2.25419e-07)
(0.00134128 7.15489e-06 1.99769e-07)
(0.00132498 6.51901e-06 1.78361e-07)
(0.0013104 5.94509e-06 1.60272e-07)
(0.00129727 5.42463e-06 1.44826e-07)
(0.00128538 4.95062e-06 1.31507e-07)
(0.00127456 4.51717e-06 1.1994e-07)
(0.00126466 4.11938e-06 1.09821e-07)
(0.00125557 3.75294e-06 1.00908e-07)
(0.00124719 3.41394e-06 9.30255e-08)
(0.00123944 3.0985e-06 8.60162e-08)
(0.00123224 2.8025e-06 7.97567e-08)
(0.00122554 2.5213e-06 7.41488e-08)
(0.0012193 2.2496e-06 6.90998e-08)
(0.00121346 1.98135e-06 6.45186e-08)
(0.00120798 1.71008e-06 6.03427e-08)
(0.00120284 1.42911e-06 5.64944e-08)
(0.001198 1.13298e-06 5.29159e-08)
(0.00119343 8.16914e-07 4.95221e-08)
(0.0011891 4.82759e-07 4.63413e-08)
(0.00118499 1.28578e-07 4.30862e-08)
(0.00118105 -2.17876e-07 4.04268e-08)
(0.00117737 -5.79988e-07 3.62133e-08)
(0.0011736 -8.18432e-07 3.71027e-08)
(0.00117066 -1.16501e-06 2.0047e-08)
(0.00116662 -9.00576e-07 6.07534e-08)
(0.00116455 -1.53892e-06 -5.01127e-08)
(0.00560017 8.22273e-06 0.00029543)
(0.00347016 1.41092e-05 6.88215e-05)
(0.00234539 1.64737e-05 1.55359e-05)
(0.00199195 1.69033e-05 3.10738e-06)
(0.00180648 1.6352e-05 1.37214e-06)
(0.00169229 1.53172e-05 9.6338e-07)
(0.00161176 1.40885e-05 7.77201e-07)
(0.00155061 1.28303e-05 6.37814e-07)
(0.00150229 1.16275e-05 5.29373e-07)
(0.00146296 1.05187e-05 4.46222e-07)
(0.0014302 9.51641e-06 3.81552e-07)
(0.00140244 8.61921e-06 3.30391e-07)
(0.00137856 7.81924e-06 2.89207e-07)
(0.00135778 7.10607e-06 2.55525e-07)
(0.00133949 6.46892e-06 2.27584e-07)
(0.00132327 5.89766e-06 2.04118e-07)
(0.00130877 5.38333e-06 1.84202e-07)
(0.00129571 4.91819e-06 1.67132e-07)
(0.00128389 4.49568e-06 1.52384e-07)
(0.00127313 4.11028e-06 1.39547e-07)
(0.00126329 3.7573e-06 1.283e-07)
(0.00125425 3.43265e-06 1.18385e-07)
(0.00124591 3.13261e-06 1.09604e-07)
(0.0012382 2.85357e-06 1.01784e-07)
(0.00123104 2.59181e-06 9.47947e-08)
(0.00122437 2.34327e-06 8.85134e-08)
(0.00121816 2.10346e-06 8.28446e-08)
(0.00121234 1.8674e-06 7.76875e-08)
(0.00120689 1.6299e-06 7.29745e-08)
(0.00120177 1.38576e-06 6.86201e-08)
(0.00119694 1.13096e-06 6.45703e-08)
(0.00119239 8.62148e-07 6.07295e-08)
(0.00118808 5.81544e-07 5.71434e-08)
(0.00118401 2.88438e-07 5.3478e-08)
(0.0011801 5.97196e-09 5.05266e-08)
(0.00117649 -2.83059e-07 4.58225e-08)
(0.00117276 -4.69325e-07 4.67019e-08)
(0.00116997 -7.30319e-07 2.83268e-08)
(0.0011659 -5.23932e-07 7.03065e-08)
(0.00116421 -9.96123e-07 -5.08587e-08)
(0.00559996 6.37933e-06 0.000295427)
(0.00346924 1.10402e-05 6.88153e-05)
(0.00234381 1.2993e-05 1.55186e-05)
(0.00199008 1.33998e-05 3.08331e-06)
(0.00180451 1.30075e-05 1.34402e-06)
(0.00169035 1.2205e-05 9.32566e-07)
(0.00160993 1.12315e-05 7.45151e-07)
(0.00154892 1.02247e-05 6.05693e-07)
(0.00150074 9.25743e-06 4.98001e-07)
(0.00146154 8.36385e-06 4.16136e-07)
(0.00142891 7.55555e-06 3.53054e-07)
(0.00140126 6.83221e-06 3.03628e-07)
(0.00137747 6.18773e-06 2.64212e-07)
(0.00135676 5.6137e-06 2.32247e-07)
(0.00133855 5.10131e-06 2.0593e-07)
(0.00132238 4.64225e-06 1.83973e-07)
(0.00130793 4.22918e-06 1.65438e-07)
(0.00129491 3.85575e-06 1.49624e-07)
(0.00128312 3.5166e-06 1.36007e-07)
(0.00127239 3.20723e-06 1.24181e-07)
(0.00126257 2.92384e-06 1.13844e-07)
(0.00125356 2.66308e-06 1.04744e-07)
(0.00124524 2.42194e-06 9.66935e-08)
(0.00123754 2.19752e-06 8.95415e-08)
(0.0012304 1.98682e-06 8.31495e-08)
(0.00122375 1.78661e-06 7.742e-08)
(0.00121754 1.59334e-06 7.22529e-08)
(0.00121173 1.40313e-06 6.75692e-08)
(0.00120629 1.21196e-06 6.32899e-08)
(0.00120117 1.01588e-06 5.9345e-08)
(0.00119635 8.11916e-07 5.56791e-08)
(0.00119181 5.97732e-07 5.21951e-08)
(0.00118751 3.75427e-07 4.89486e-08)
(0.00118345 1.44913e-07 4.5569e-08)
(0.00117956 -7.52255e-08 4.2941e-08)
(0.001176 -2.9745e-07 3.83743e-08)
(0.00117231 -4.37188e-07 3.98197e-08)
(0.00116965 -6.28567e-07 2.10546e-08)
(0.00116557 -4.60251e-07 6.51435e-08)
(0.00116431 -8.04261e-07 -6.42925e-08)
(0.00559985 4.82814e-06 0.00029543)
(0.00346868 8.44928e-06 6.88258e-05)
(0.00234275 1.00857e-05 1.55316e-05)
(0.00198873 1.05288e-05 3.09972e-06)
(0.00180301 1.03337e-05 1.3637e-06)
(0.00168879 9.78561e-06 9.54397e-07)
(0.00160837 9.07378e-06 7.6824e-07)
(0.0015474 8.31154e-06 6.29281e-07)
(0.00149928 7.56273e-06 5.21459e-07)
(0.00146014 6.85992e-06 4.39e-07)
(0.00142758 6.21681e-06 3.75011e-07)
(0.00139999 5.63638e-06 3.24486e-07)
(0.00137627 5.11603e-06 2.83877e-07)
(0.00135562 4.65053e-06 2.50695e-07)
(0.00133746 4.2338e-06 2.23183e-07)
(0.00132134 3.85979e-06 2.00087e-07)
(0.00130693 3.52291e-06 1.80482e-07)
(0.00129396 3.21828e-06 1.63682e-07)
(0.00128221 2.94163e-06 1.49158e-07)
(0.00127151 2.68936e-06 1.36507e-07)
(0.00126173 2.45835e-06 1.25425e-07)
(0.00125274 2.24586e-06 1.15654e-07)
(0.00124445 2.04942e-06 1.06999e-07)
(0.00123678 1.86666e-06 9.92917e-08)
(0.00122966 1.69514e-06 9.24017e-08)
(0.00122303 1.53232e-06 8.62173e-08)
(0.00121684 1.37543e-06 8.06343e-08)
(0.00121105 1.22153e-06 7.55708e-08)
(0.00120561 1.06762e-06 7.09429e-08)
(0.00120051 9.10833e-07 6.66758e-08)
(0.0011957 7.491e-07 6.27126e-08)
(0.00119117 5.80892e-07 5.89518e-08)
(0.00118688 4.081e-07 5.54581e-08)
(0.00118284 2.31001e-07 5.1836e-08)
(0.00117898 6.38271e-08 4.90359e-08)
(0.00117546 -1.02283e-07 4.41857e-08)
(0.00117179 -2.05122e-07 4.56045e-08)
(0.00116924 -3.42985e-07 2.61087e-08)
(0.00116514 -2.20395e-07 7.0828e-08)
(0.00116409 -4.71196e-07 -6.45224e-08)
(0.00559976 3.35122e-06 0.000295428)
(0.00346827 5.87521e-06 6.88239e-05)
(0.00234197 7.04129e-06 1.5526e-05)
(0.00198774 7.35769e-06 3.09124e-06)
(0.00180193 7.22126e-06 1.35302e-06)
(0.0016877 6.82797e-06 9.41772e-07)
(0.00160731 6.31503e-06 7.54213e-07)
(0.0015464 5.76525e-06 6.1442e-07)
(0.00149835 5.22575e-06 5.06243e-07)
(0.0014593 4.72072e-06 4.23815e-07)
(0.00142681 4.26027e-06 3.60145e-07)
(0.00139929 3.8465e-06 3.10141e-07)
(0.00137562 3.47727e-06 2.70178e-07)
(0.00135502 3.14851e-06 2.37713e-07)
(0.0013369 2.85552e-06 2.10948e-07)
(0.00132082 2.59365e-06 1.88594e-07)
(0.00130644 2.35865e-06 1.69708e-07)
(0.0012935 2.14681e-06 1.53585e-07)
(0.00128177 1.95494e-06 1.39694e-07)
(0.00127109 1.78033e-06 1.27632e-07)
(0.00126133 1.62068e-06 1.17088e-07)
(0.00125235 1.47398e-06 1.07806e-07)
(0.00124408 1.33845e-06 9.95891e-08)
(0.00123641 1.21235e-06 9.2289e-08)
(0.0012293 1.09398e-06 8.57684e-08)
(0.00122268 9.81547e-07 7.99177e-08)
(0.00121649 8.73123e-07 7.46446e-08)
(0.00121071 7.66662e-07 6.98628e-08)
(0.00120528 6.60117e-07 6.54987e-08)
(0.00120017 5.5153e-07 6.14745e-08)
(0.00119537 4.39529e-07 5.77376e-08)
(0.00119084 3.23123e-07 5.41806e-08)
(0.00118655 2.03751e-07 5.08886e-08)
(0.00118253 8.17289e-08 4.74282e-08)
(0.00117867 -3.2904e-08 4.48061e-08)
(0.00117518 -1.46017e-07 4.00431e-08)
(0.00117154 -2.145e-07 4.17572e-08)
(0.00116906 -3.05552e-07 2.20976e-08)
(0.00116496 -2.1455e-07 6.79354e-08)
(0.00116415 -3.82239e-07 -7.19097e-08)
(0.00559971 1.9902e-06 0.000295428)
(0.00346803 3.50314e-06 6.88265e-05)
(0.00234151 4.23885e-06 1.553e-05)
(0.00198714 4.46391e-06 3.09678e-06)
(0.00180125 4.41942e-06 1.3601e-06)
(0.00168697 4.2144e-06 9.49987e-07)
(0.00160658 3.93052e-06 7.63283e-07)
(0.00154568 3.61757e-06 6.24065e-07)
(0.00149767 3.30467e-06 5.16181e-07)
(0.00145864 3.00744e-06 4.338e-07)
(0.00142618 2.73306e-06 3.69986e-07)
(0.00139869 2.48375e-06 3.19693e-07)
(0.00137505 2.25904e-06 2.79344e-07)
(0.00135448 2.05714e-06 2.46435e-07)
(0.00133639 1.87573e-06 2.19196e-07)
(0.00132033 1.71243e-06 1.96357e-07)
(0.00130597 1.56497e-06 1.76995e-07)
(0.00129305 1.43133e-06 1.6042e-07)
(0.00128134 1.30974e-06 1.46103e-07)
(0.00127068 1.1987e-06 1.33644e-07)
(0.00126093 1.09685e-06 1.22729e-07)
(0.00125197 1.00306e-06 1.13111e-07)
(0.0012437 9.16247e-07 1.04591e-07)
(0.00123605 8.35393e-07 9.701e-08)
(0.00122895 7.59472e-07 9.02316e-08)
(0.00122234 6.87419e-07 8.4149e-08)
(0.00121616 6.18096e-07 7.86649e-08)
(0.00121038 5.50293e-07 7.3691e-08)
(0.00120495 4.82833e-07 6.91503e-08)
(0.00119986 4.14594e-07 6.49635e-08)
(0.00119506 3.44821e-07 6.10762e-08)
(0.00119053 2.73004e-07 5.73858e-08)
(0.00118626 2.00064e-07 5.39735e-08)
(0.00118224 1.26286e-07 5.04008e-08)
(0.0011784 5.7596e-08 4.76949e-08)
(0.00117493 -9.39374e-09 4.27959e-08)
(0.0011713 -4.97859e-08 4.44981e-08)
(0.00116886 -1.02858e-07 2.44975e-08)
(0.00116476 -5.23851e-08 7.0604e-08)
(0.00116405 -1.52382e-07 -7.21052e-08)
(0.00559969 6.53522e-07 0.000295425)
(0.00346791 1.14438e-06 6.8825e-05)
(0.00234128 1.38022e-06 1.55283e-05)
(0.00198683 1.44108e-06 3.09449e-06)
(0.00180091 1.41189e-06 1.35718e-06)
(0.00168662 1.32867e-06 9.46343e-07)
(0.00160624 1.22004e-06 7.59039e-07)
(0.00154536 1.10349e-06 6.19403e-07)
(0.00149736 9.89243e-07 5.11259e-07)
(0.00145836 8.82712e-07 4.28757e-07)
(0.00142593 7.8621e-07 3.64936e-07)
(0.00139846 7.00255e-07 3.14721e-07)
(0.00137485 6.24376e-07 2.74515e-07)
(0.00135429 5.57628e-07 2.41785e-07)
(0.00133622 4.98913e-07 2.14755e-07)
(0.00132017 4.4712e-07 1.92142e-07)
(0.00130583 4.01247e-07 1.73001e-07)
(0.00129291 3.60404e-07 1.56642e-07)
(0.00128121 3.23816e-07 1.42534e-07)
(0.00127056 2.90864e-07 1.30274e-07)
(0.00126081 2.60985e-07 1.19543e-07)
(0.00125186 2.33732e-07 1.10096e-07)
(0.0012436 2.08698e-07 1.01733e-07)
(0.00123596 1.85504e-07 9.42977e-08)
(0.00122886 1.63775e-07 8.76578e-08)
(0.00122225 1.4316e-07 8.16994e-08)
(0.00121607 1.23269e-07 7.63298e-08)
(0.00121029 1.03687e-07 7.14617e-08)
(0.00120487 8.40237e-08 6.7018e-08)
(0.00119977 6.38996e-08 6.29254e-08)
(0.00119497 4.30538e-08 5.91327e-08)
(0.00119045 2.13262e-08 5.55233e-08)
(0.00118617 -1.01392e-09 5.21911e-08)
(0.00118216 -2.38519e-08 4.86882e-08)
(0.00117832 -4.52111e-08 4.60615e-08)
(0.00117486 -6.61496e-08 4.12109e-08)
(0.00117124 -7.82548e-08 4.30258e-08)
(0.00116882 -9.42593e-08 2.30028e-08)
(0.00116472 -7.37799e-08 6.94629e-08)
(0.00116409 -1.03782e-07 -7.46858e-08)
(0.00559969 -6.53511e-07 0.000295425)
(0.00346791 -1.14436e-06 6.8825e-05)
(0.00234128 -1.3802e-06 1.55283e-05)
(0.00198683 -1.44107e-06 3.09449e-06)
(0.00180091 -1.41187e-06 1.35718e-06)
(0.00168662 -1.32865e-06 9.46342e-07)
(0.00160624 -1.22002e-06 7.5904e-07)
(0.00154536 -1.10347e-06 6.19404e-07)
(0.00149736 -9.89219e-07 5.11259e-07)
(0.00145836 -8.82683e-07 4.28758e-07)
(0.00142593 -7.86178e-07 3.64936e-07)
(0.00139846 -7.00219e-07 3.14723e-07)
(0.00137485 -6.24332e-07 2.74513e-07)
(0.00135429 -5.57582e-07 2.41786e-07)
(0.00133622 -4.98852e-07 2.14756e-07)
(0.00132017 -4.47052e-07 1.92139e-07)
(0.00130583 -4.01155e-07 1.73001e-07)
(0.00129291 -3.60287e-07 1.56643e-07)
(0.00128121 -3.23676e-07 1.42535e-07)
(0.00127056 -2.90691e-07 1.30273e-07)
(0.00126081 -2.60781e-07 1.19545e-07)
(0.00125186 -2.33481e-07 1.10097e-07)
(0.0012436 -2.08395e-07 1.01732e-07)
(0.00123596 -1.85149e-07 9.4298e-08)
(0.00122886 -1.63376e-07 8.76571e-08)
(0.00122225 -1.42718e-07 8.16984e-08)
(0.00121607 -1.22784e-07 7.63281e-08)
(0.00121029 -1.03178e-07 7.14593e-08)
(0.00120487 -8.35074e-08 6.702e-08)
(0.00119977 -6.34037e-08 6.29256e-08)
(0.00119497 -4.26107e-08 5.91311e-08)
(0.00119045 -2.09465e-08 5.55216e-08)
(0.00118617 1.28613e-09 5.21916e-08)
(0.00118216 2.40092e-08 4.86875e-08)
(0.00117832 4.52404e-08 4.60611e-08)
(0.00117486 6.60768e-08 4.12117e-08)
(0.00117124 7.80535e-08 4.30235e-08)
(0.00116882 9.40991e-08 2.30031e-08)
(0.00116472 7.34083e-08 6.94599e-08)
(0.00116409 1.04069e-07 -7.46799e-08)
(0.00559971 -1.99019e-06 0.000295428)
(0.00346803 -3.50311e-06 6.88265e-05)
(0.00234151 -4.23883e-06 1.553e-05)
(0.00198714 -4.46389e-06 3.09678e-06)
(0.00180125 -4.4194e-06 1.3601e-06)
(0.00168697 -4.21438e-06 9.49988e-07)
(0.00160658 -3.9305e-06 7.63283e-07)
(0.00154568 -3.61755e-06 6.24064e-07)
(0.00149767 -3.30464e-06 5.16183e-07)
(0.00145864 -3.00741e-06 4.33802e-07)
(0.00142618 -2.73303e-06 3.69985e-07)
(0.00139869 -2.48371e-06 3.19693e-07)
(0.00137505 -2.259e-06 2.79343e-07)
(0.00135448 -2.05709e-06 2.46435e-07)
(0.00133639 -1.87568e-06 2.19194e-07)
(0.00132033 -1.71236e-06 1.96362e-07)
(0.00130597 -1.56488e-06 1.77e-07)
(0.00129305 -1.43122e-06 1.60421e-07)
(0.00128134 -1.30961e-06 1.46105e-07)
(0.00127068 -1.19853e-06 1.33645e-07)
(0.00126093 -1.09665e-06 1.22726e-07)
(0.00125197 -1.00282e-06 1.1311e-07)
(0.0012437 -9.15956e-07 1.04591e-07)
(0.00123605 -8.35054e-07 9.70109e-08)
(0.00122895 -7.59086e-07 9.0232e-08)
(0.00122234 -6.86987e-07 8.41488e-08)
(0.00121616 -6.17624e-07 7.8667e-08)
(0.00121038 -5.49799e-07 7.36909e-08)
(0.00120496 -4.82331e-07 6.91479e-08)
(0.00119986 -4.14108e-07 6.49586e-08)
(0.00119506 -3.44378e-07 6.10807e-08)
(0.00119053 -2.72639e-07 5.7389e-08)
(0.00118626 -1.9979e-07 5.39733e-08)
(0.00118224 -1.26106e-07 5.03985e-08)
(0.0011784 -5.75375e-08 4.76933e-08)
(0.00117493 9.35815e-09 4.27981e-08)
(0.0011713 4.96284e-08 4.44968e-08)
(0.00116887 1.02745e-07 2.4497e-08)
(0.00116476 5.2077e-08 7.06009e-08)
(0.00116405 1.52707e-07 -7.20927e-08)
(0.00559976 -3.35121e-06 0.000295428)
(0.00346827 -5.8752e-06 6.88239e-05)
(0.00234197 -7.04127e-06 1.5526e-05)
(0.00198774 -7.35767e-06 3.09124e-06)
(0.00180193 -7.22125e-06 1.35302e-06)
(0.0016877 -6.82795e-06 9.41772e-07)
(0.00160731 -6.31501e-06 7.54216e-07)
(0.0015464 -5.76523e-06 6.14423e-07)
(0.00149835 -5.22572e-06 5.06244e-07)
(0.0014593 -4.72069e-06 4.23816e-07)
(0.00142681 -4.26024e-06 3.60145e-07)
(0.00139929 -3.84646e-06 3.10142e-07)
(0.00137562 -3.47723e-06 2.7018e-07)
(0.00135502 -3.14846e-06 2.37713e-07)
(0.0013369 -2.85546e-06 2.10949e-07)
(0.00132082 -2.59358e-06 1.88596e-07)
(0.00130644 -2.35857e-06 1.69709e-07)
(0.0012935 -2.14671e-06 1.53585e-07)
(0.00128177 -1.95482e-06 1.39696e-07)
(0.00127109 -1.78017e-06 1.27636e-07)
(0.00126133 -1.62048e-06 1.17087e-07)
(0.00125235 -1.47375e-06 1.07804e-07)
(0.00124408 -1.33817e-06 9.95906e-08)
(0.00123641 -1.21203e-06 9.22913e-08)
(0.0012293 -1.09362e-06 8.57696e-08)
(0.00122268 -9.81132e-07 7.99191e-08)
(0.00121649 -8.72671e-07 7.4646e-08)
(0.00121071 -7.6619e-07 6.98625e-08)
(0.00120528 -6.59639e-07 6.54991e-08)
(0.00120017 -5.5106e-07 6.14713e-08)
(0.00119537 -4.39094e-07 5.77361e-08)
(0.00119084 -3.22754e-07 5.41797e-08)
(0.00118655 -2.03464e-07 5.08843e-08)
(0.00118253 -8.15344e-08 4.74264e-08)
(0.00117867 3.29919e-08 4.48053e-08)
(0.00117518 1.46023e-07 4.00385e-08)
(0.00117155 2.14399e-07 4.1758e-08)
(0.00116906 3.05496e-07 2.20964e-08)
(0.00116497 2.14328e-07 6.79313e-08)
(0.00116415 3.82603e-07 -7.18878e-08)
(0.00559985 -4.82813e-06 0.00029543)
(0.00346868 -8.44927e-06 6.88258e-05)
(0.00234275 -1.00857e-05 1.55316e-05)
(0.00198873 -1.05288e-05 3.09971e-06)
(0.00180301 -1.03336e-05 1.3637e-06)
(0.00168879 -9.78559e-06 9.54399e-07)
(0.00160837 -9.07376e-06 7.68244e-07)
(0.0015474 -8.31152e-06 6.2928e-07)
(0.00149928 -7.56271e-06 5.21459e-07)
(0.00146014 -6.8599e-06 4.39001e-07)
(0.00142758 -6.21679e-06 3.75011e-07)
(0.00139999 -5.63636e-06 3.24484e-07)
(0.00137627 -5.11599e-06 2.83874e-07)
(0.00135562 -4.65048e-06 2.50694e-07)
(0.00133746 -4.23375e-06 2.23184e-07)
(0.00132134 -3.85972e-06 2.00088e-07)
(0.00130693 -3.52284e-06 1.80482e-07)
(0.00129396 -3.21818e-06 1.6368e-07)
(0.00128221 -2.94151e-06 1.49156e-07)
(0.00127151 -2.68922e-06 1.3651e-07)
(0.00126173 -2.45817e-06 1.25424e-07)
(0.00125274 -2.24565e-06 1.15657e-07)
(0.00124445 -2.04917e-06 1.06996e-07)
(0.00123678 -1.86636e-06 9.92909e-08)
(0.00122966 -1.69479e-06 9.24018e-08)
(0.00122303 -1.53192e-06 8.62196e-08)
(0.00121684 -1.375e-06 8.06357e-08)
(0.00121105 -1.22108e-06 7.55693e-08)
(0.00120561 -1.06716e-06 7.09454e-08)
(0.00120051 -9.1038e-07 6.66738e-08)
(0.0011957 -7.48672e-07 6.27118e-08)
(0.00119117 -5.80513e-07 5.89519e-08)
(0.00118688 -4.07785e-07 5.54584e-08)
(0.00118284 -2.30771e-07 5.18379e-08)
(0.00117898 -6.36837e-08 4.90344e-08)
(0.00117546 1.02351e-07 4.41867e-08)
(0.0011718 2.05113e-07 4.56046e-08)
(0.00116924 3.43023e-07 2.61076e-08)
(0.00116514 2.2029e-07 7.08209e-08)
(0.00116409 4.71629e-07 -6.44914e-08)
(0.00559996 -6.37933e-06 0.000295427)
(0.00346924 -1.10402e-05 6.88153e-05)
(0.00234381 -1.2993e-05 1.55186e-05)
(0.00199008 -1.33997e-05 3.08331e-06)
(0.00180451 -1.30075e-05 1.34402e-06)
(0.00169035 -1.2205e-05 9.32567e-07)
(0.00160993 -1.12315e-05 7.45152e-07)
(0.00154892 -1.02246e-05 6.05693e-07)
(0.00150074 -9.25741e-06 4.98004e-07)
(0.00146154 -8.36382e-06 4.16136e-07)
(0.00142891 -7.55552e-06 3.53054e-07)
(0.00140126 -6.83218e-06 3.03628e-07)
(0.00137747 -6.18769e-06 2.64209e-07)
(0.00135676 -5.61366e-06 2.32245e-07)
(0.00133855 -5.10125e-06 2.05929e-07)
(0.00132238 -4.64219e-06 1.83975e-07)
(0.00130793 -4.2291e-06 1.65436e-07)
(0.00129491 -3.85565e-06 1.49625e-07)
(0.00128312 -3.51649e-06 1.36003e-07)
(0.00127239 -3.20711e-06 1.24183e-07)
(0.00126257 -2.92368e-06 1.13843e-07)
(0.00125356 -2.66289e-06 1.04744e-07)
(0.00124524 -2.42171e-06 9.66968e-08)
(0.00123754 -2.19725e-06 8.95438e-08)
(0.0012304 -1.9865e-06 8.31508e-08)