/*--------------------------------*- C++ -*----------------------------------*\
| =========                 |                                                 |
| \\      /  F ield         | OpenFOAM: The Open Source CFD Toolbox           |
|  \\    /   O peration     | Version:  5.0                                   |
|   \\  /    A nd           | Web:      www.OpenFOAM.org                      |
|    \\/     M anipulation  |                                                 |
\*---------------------------------------------------------------------------*/
FoamFile
{
    version     2.0;
    format      ascii;
    class       volScalarField;
    location    "1000/air";
    object      alphat;
}
// * * * * * * * * * * * * * * * * * * * * * * * * * * * * * * * * * * * * * //

dimensions      [1 -1 -1 0 0 0 0];

internalField   nonuniform List<scalar> 
243000
(
0.000141258
0.000150993
0.000151689
0.000149912
0.000146412
0.000141779
0.000136472
0.000130811
0.000125004
0.000119259
0.000113714
0.000108636
0.000104288
0.000101056
9.91222e-05
9.8382e-05
9.81353e-05
9.78815e-05
9.74311e-05
9.68203e-05
9.6142e-05
9.54767e-05
9.49021e-05
9.45803e-05
9.45729e-05
9.41076e-05
9.20325e-05
8.58485e-05
8.06247e-05
9.48084e-05
0.000626223
0.000689042
0.000714287
0.000728266
0.000733945
0.000733856
0.000729653
0.000722189
0.000712066
0.000699999
0.000686735
0.0006738
0.000662275
0.000654097
0.000649273
0.000645829
0.000639008
0.000627507
0.000612041
0.000594172
0.000575122
0.000555508
0.000535727
0.00051711
0.0005012
0.000484532
0.000462299
0.000426346
0.00038184
0.000395585
0.000665973
0.000738951
0.000769383
0.000787079
0.000795157
0.000796893
0.000794217
0.000788261
0.000779731
0.00076946
0.000758209
0.000747539
0.000738383
0.000732549
0.000729497
0.000726488
0.000718189
0.000703724
0.000684584
0.000662808
0.000639929
0.000616692
0.000593429
0.000571145
0.000551239
0.000531834
0.000509176
0.000476117
0.000434601
0.000411233
0.00065353
0.00074612
0.000790909
0.000815673
0.000828483
0.000834114
0.000834753
0.000831896
0.000826419
0.000819266
0.000811187
0.000803772
0.000797835
0.000794986
0.000794182
0.00079216
0.00078322
0.000766916
0.000745223
0.000720583
0.000694763
0.000668639
0.000642542
0.00061725
0.000593967
0.000571469
0.000547247
0.000516127
0.000477041
0.000444271
0.000616565
0.000723611
0.000783987
0.000820359
0.000841875
0.000853281
0.000858861
0.000860386
0.000859055
0.000855971
0.000851868
0.000848323
0.00084604
0.000846422
0.000847962
0.000847028
0.000837843
0.000820376
0.000796949
0.00077027
0.000742251
0.000713902
0.000685574
0.000657892
0.000631907
0.000606681
0.000580546
0.000549928
0.000512631
0.000477553
0.000579588
0.000686439
0.000758186
0.000807225
0.000838344
0.000858321
0.000870735
0.000877822
0.000881604
0.000883349
0.000883791
0.000884518
0.000886114
0.000889799
0.00089362
0.000893726
0.000884513
0.000866327
0.000841736
0.000813622
0.000783993
0.000753955
0.000723901
0.000694346
0.000666216
0.00063881
0.000610741
0.000579828
0.000543451
0.000506554
0.000541955
0.000645797
0.000724588
0.000780721
0.000822712
0.000851965
0.000872256
0.000886756
0.000896523
0.000903759
0.000909212
0.000914507
0.000920073
0.000927003
0.000932971
0.000934026
0.000924933
0.000906327
0.000880987
0.000851887
0.000821099
0.000789799
0.000758425
0.000727413
0.000697597
0.00066846
0.000638605
0.000607073
0.000571079
0.000533232
0.000521151
0.000599759
0.000688286
0.000751686
0.000798038
0.000836771
0.000865922
0.000888537
0.000905458
0.000918813
0.000929649
0.000939702
0.000949263
0.000959313
0.00096727
0.00096918
0.000960301
0.000941513
0.000915723
0.000885978
0.000854373
0.000822158
0.000789787
0.000757658
0.000726527
0.000696009
0.000664568
0.000632334
0.000596478
0.00055831
0.0005369
0.000560399
0.000647711
0.000720307
0.000773591
0.000816059
0.000853333
0.000884451
0.000909858
0.00092965
0.000946177
0.00096111
0.000974629
0.000987649
0.000997418
0.0010001
0.00099151
0.000972716
0.000946705
0.000916567
0.000884417
0.000851549
0.000818456
0.000785499
0.000753363
0.000721749
0.000688951
0.000656014
0.00062018
0.000582027
0.000567052
0.000551123
0.000605766
0.000685097
0.000747539
0.000795789
0.000836478
0.000875972
0.000909801
0.000937036
0.000959565
0.000979459
0.000996868
0.00101268
0.00102408
0.00102747
0.00101922
0.00100058
0.000974519
0.000944182
0.000911696
0.000878396
0.000844804
0.000811274
0.000778389
0.000745917
0.000712238
0.000678476
0.000642568
0.000604476
0.000601667
0.000578866
0.000578024
0.000647034
0.000718772
0.000774898
0.000820787
0.000864472
0.000906677
0.000941885
0.000970369
0.000995291
0.00101649
0.00103491
0.00104777
0.0010518
0.00104394
0.00102556
0.000999622
0.000969245
0.000936598
0.000903035
0.000869133
0.00083524
0.000801827
0.000768695
0.000734379
0.000699874
0.000663884
0.000625796
0.00063737
0.000615051
0.000588352
0.000613511
0.000687197
0.000752522
0.000805103
0.000852621
0.000901149
0.000944428
0.000979105
0.00100899
0.00103388
0.00105474
0.00106886
0.00107348
0.00106603
0.00104803
0.00102234
0.000992076
0.000959404
0.00092572
0.000891656
0.000857575
0.000823831
0.000790232
0.000755463
0.000720321
0.000684244
0.000646112
0.000673071
0.000652903
0.000622622
0.000600797
0.000655772
0.000728338
0.000788907
0.000841432
0.000893862
0.000945064
0.000986242
0.00102096
0.00104934
0.00107243
0.00108766
0.00109283
0.0010858
0.00106823
0.00104293
0.0010129
0.000980325
0.000946644
0.000912542
0.000878405
0.000844508
0.000810626
0.000775569
0.000739905
0.000703713
0.000665534
0.000708648
0.000690207
0.000661103
0.000624363
0.000632947
0.000703071
0.000771939
0.000830556
0.000886142
0.000944238
0.000992066
0.00103144
0.0010631
0.00108821
0.00110442
0.00111008
0.00110348
0.0010864
0.00106159
0.00103191
0.000999545
0.00096598
0.000931955
0.000897891
0.000863992
0.000829988
0.00079479
0.000758731
0.000722429
0.000684233
0.000744132
0.000726587
0.000699067
0.000659741
0.000627499
0.000679373
0.000754291
0.000819799
0.000879408
0.000942509
0.000996747
0.00104064
0.00107532
0.00110226
0.0011193
0.00112544
0.00111927
0.00110273
0.00107848
0.00104926
0.00101723
0.000983889
0.000950063
0.0009162
0.000882428
0.000848442
0.000813229
0.000776858
0.000740453
0.000702338
0.000779543
0.000762154
0.000735585
0.000696479
0.000648154
0.000662507
0.00073662
0.000809104
0.000873399
0.000940125
0.00100051
0.00104871
0.00108613
0.0011147
0.00113247
0.00113906
0.00113332
0.00111735
0.00109374
0.00106509
0.0010335
0.00100051
0.00096701
0.000933476
0.000899948
0.000866096
0.000830966
0.000794346
0.000757955
0.000719949
0.000814884
0.000797073
0.000770782
0.000732474
0.00068147
0.000656965
0.000720246
0.000798537
0.000867912
0.000937242
0.00100347
0.00105573
0.0010956
0.00112561
0.00114402
0.00115104
0.00114577
0.00113042
0.00110749
0.00107949
0.00104848
0.00101598
0.000982937
0.000949839
0.000916674
0.000883053
0.000848125
0.000811364
0.000775037
0.000737166
0.000850123
0.000831451
0.00080487
0.000766979
0.000715119
0.000667008
0.000707203
0.000788333
0.000862839
0.000934044
0.00100565
0.00106176
0.00110376
0.00113505
0.00115401
0.00116147
0.00115671
0.00114204
0.00111983
0.00109259
0.00106225
0.00103038
0.000997929
0.000965396
0.000932719
0.000899466
0.000864849
0.000828013
0.000791795
0.000754065
0.000885238
0.000865348
0.000838031
0.000800073
0.000748099
0.000687822
0.000699537
0.000778886
0.000858137
0.000931196
0.00100705
0.00106667
0.00111059
0.00114301
0.00116249
0.0011704
0.00116623
0.00115229
0.00113091
0.00110451
0.00107495
0.00104381
0.00101207
0.000980231
0.000948183
0.000915445
0.000881258
0.000844404
0.000808327
0.000770775
0.000920156
0.00089878
0.0008704
0.000831998
0.000779901
0.000715286
0.00069816
0.000770638
0.00085379
0.000928818
0.00100752
0.00107034
0.00111604
0.00114946
0.00116945
0.00117788
0.00117436
0.00116128
0.00114084
0.00111536
0.00108668
0.00105638
0.00102548
0.000994447
0.000963162
0.000931106
0.000897511
0.000860864
0.000824814
0.000787421
0.000954875
0.000931777
0.000902097
0.000862963
0.000810513
0.000743905
0.00070468
0.000764127
0.000849764
0.000926708
0.001007
0.00107266
0.00112009
0.00115436
0.00117489
0.00118391
0.00118117
0.00116907
0.00114971
0.00112526
0.00109757
0.00106823
0.00103827
0.00100817
0.000977788
0.000946592
0.000913781
0.000877739
0.000841556
0.000804253
0.000989395
0.000964416
0.000933284
0.000893169
0.000840459
0.000772495
0.000717154
0.000759821
0.000846115
0.000924779
0.00100548
0.0010732
0.00112234
0.00115756
0.00117869
0.00118844
0.00118662
0.00117567
0.00115753
0.00113427
0.00110772
0.00107948
0.0010506
0.00102154
0.000992203
0.000962053
0.000930241
0.000895046
0.000858701
0.00082137
0.00102409
0.000996975
0.000964296
0.000923176
0.000871065
0.000800599
0.000733552
0.000757976
0.000843043
0.000923175
0.00100277
0.0010718
0.00112214
0.00115855
0.00118054
0.00119121
0.00119051
0.00118092
0.00116422
0.00114237
0.00111716
0.00109021
0.00106257
0.00103472
0.00100657
0.000977647
0.000947039
0.000912898
0.000876332
0.000838839
0.00105949
0.00103001
0.00099606
0.000955446
0.000900635
0.000827414
0.000752024
0.000758583
0.000841065
0.000922202
0.000998871
0.00106807
0.00111937
0.0011568
0.00117968
0.00119145
0.00119212
0.00118424
0.00116927
0.00114914
0.00112559
0.00110023
0.00107412
0.00104771
0.00102097
0.000993444
0.000964194
0.000931262
0.000894488
0.000856735
0.00109436
0.00106485
0.00103054
0.000987036
0.000929278
0.000853212
0.000771711
0.000762331
0.000840759
0.000922278
0.000996586
0.00106196
0.00111308
0.00115092
0.00117458
0.00118754
0.00118985
0.00118394
0.00117126
0.00115335
0.00113191
0.00110857
0.00108436
0.00105977
0.00103479
0.00100894
0.000981209
0.000949542
0.000913092
0.000875145
0.00112571
0.001096
0.00106086
0.00101628
0.000957135
0.00087914
0.000793024
0.000771325
0.000844266
0.000925776
0.000997572
0.00105918
0.00110725
0.001143
0.00116646
0.00118009
0.0011843
0.00118081
0.00117077
0.00115565
0.00113673
0.00111531
0.00109247
0.00106928
0.00104627
0.00102238
0.000996433
0.00096625
0.000932143
0.000894617
0.00115181
0.00112512
0.00109161
0.00104775
0.000988759
0.000910595
0.000822963
0.000792046
0.000860825
0.000941479
0.00101088
0.00106884
0.00111397
0.00114789
0.00117103
0.00118508
0.00119065
0.00118925
0.00118161
0.00116891
0.00115227
0.00113281
0.00111148
0.00108918
0.00106643
0.00104287
0.00101764
0.00098941
0.000957173
0.000919702
0.00119194
0.00116639
0.00113437
0.00109285
0.0010377
0.000965751
0.000886067
0.000853327
0.000916045
0.000992191
0.00105817
0.00111159
0.00115295
0.00118412
0.00120587
0.00121912
0.00122492
0.0012246
0.00121849
0.00120755
0.00119269
0.0011749
0.001155
0.00113364
0.00111126
0.0010877
0.00106244
0.00103443
0.00100206
0.000963232
0.00127187
0.00125174
0.00122787
0.00119838
0.00116057
0.00111323
0.00106367
0.00104762
0.00109326
0.00115204
0.00120579
0.00124777
0.00127994
0.00130372
0.00132009
0.00132934
0.00133273
0.0013313
0.00132526
0.00131518
0.00130177
0.00128572
0.00126771
0.00124809
0.00122709
0.00120389
0.00117834
0.00115011
0.00111822
0.00108015
0.00155176
0.00155018
0.00154807
0.00154397
0.00153622
0.00152522
0.00151573
0.00151809
0.00152932
0.00154583
0.00156203
0.00157547
0.0015858
0.00159255
0.00159675
0.00159843
0.001598
0.00159653
0.00159379
0.00159031
0.00158603
0.00158144
0.00157681
0.00157217
0.0015669
0.0015561
0.00154134
0.00152502
0.00150997
0.00149117
0.000174486
0.000186826
0.000189424
0.000188318
0.000184901
0.000180042
0.000174284
0.000168017
0.000161507
0.000155058
0.00014888
0.000143267
0.000138386
0.000134493
0.000131503
0.000128996
0.000126103
0.000122507
0.00011823
0.000113398
0.000108053
0.00010211
9.56658e-05
9.07344e-05
8.72721e-05
0.000369917
0.000371476
0.000376569
9.44281e-05
0.000105714
0.000679588
0.000787028
0.000796553
0.000775296
0.000744203
0.000710539
0.000679106
0.000651345
0.000627822
0.000608445
0.000591601
0.000577203
0.000562884
0.000547702
0.000526897
0.000497546
0.000457718
0.000417503
0.000382955
0.000356014
0.00033511
0.000317262
0.000299565
0.00029044
0.000289715
0.000316744
0.000340017
0.000350119
0.000384386
0.000452199
0.00111737
0.00127641
0.00133932
0.00134629
0.00132755
0.00129703
0.00126495
0.00123525
0.00120993
0.00118911
0.00116962
0.00115074
0.00112779
0.00109887
0.00105638
0.000994658
0.000910528
0.000824851
0.000750232
0.000690575
0.000645445
0.000608145
0.000570014
0.000542948
0.000534685
0.000540426
0.000541519
0.000513497
0.000520486
0.000599654
0.00134871
0.00159328
0.00170872
0.00175632
0.00177086
0.00176669
0.001757
0.00174648
0.00173765
0.00173003
0.00171913
0.00170332
0.00167616
0.00163487
0.00157268
0.00148166
0.00135773
0.00123082
0.0011179
0.00102561
0.000953189
0.000892601
0.000833249
0.000785798
0.000764129
0.000758117
0.000739314
0.000678386
0.000630234
0.000652056
0.00137344
0.00167049
0.00188332
0.0020135
0.00207939
0.0021169
0.00214653
0.00217222
0.00219437
0.00221091
0.00221667
0.00220882
0.00218038
0.00212992
0.00205054
0.00193412
0.00177591
0.00161338
0.00146674
0.00134463
0.00124644
0.00116385
0.0010847
0.00101765
0.000979903
0.000961897
0.000929921
0.000844039
0.000746266
0.00071556
0.0012697
0.00163942
0.00192392
0.00212106
0.00225458
0.00236277
0.0024464
0.00252212
0.00258635
0.00263617
0.00266329
0.00266654
0.00263926
0.00258148
0.00248778
0.00234954
0.00216271
0.00196974
0.0017937
0.00164499
0.00152341
0.00142074
0.00132393
0.00123943
0.00118532
0.00115429
0.00111375
0.00100994
0.000874738
0.000801864
0.00112439
0.00151457
0.00185755
0.00213912
0.00234364
0.00250401
0.00266999
0.00280876
0.00292328
0.00301238
0.00306459
0.00308114
0.00305554
0.00299202
0.00288652
0.00272955
0.00252002
0.00230097
0.00209939
0.00192724
0.00178471
0.00166395
0.00155156
0.00145192
0.00138235
0.00133822
0.00129138
0.00117432
0.00101136
0.000902361
0.000967167
0.00132951
0.00171615
0.00206641
0.00235345
0.00258802
0.0028109
0.0030447
0.00321318
0.00334627
0.00342537
0.00345659
0.00343342
0.00336447
0.00324963
0.00307688
0.00284972
0.00260875
0.00238498
0.00219235
0.00203123
0.00189437
0.00176824
0.00165558
0.00157194
0.00151489
0.00146313
0.00133611
0.00115229
0.00101227
0.000833928
0.00112422
0.0015297
0.00193347
0.00229167
0.00260995
0.0029062
0.00321531
0.00346168
0.00364187
0.00374916
0.00379595
0.00377633
0.00370216
0.00357992
0.00339422
0.00315345
0.00289454
0.00265185
0.00244123
0.00226384
0.00211271
0.00197461
0.00185079
0.00175472
0.00168532
0.00162903
0.00149491
0.00129514
0.00112846
0.000754872
0.000946418
0.00132347
0.00176137
0.00218104
0.00257621
0.00295767
0.00334284
0.00368183
0.00390014
0.00403854
0.00410161
0.00408709
0.0040082
0.00387989
0.00368406
0.00343222
0.00315999
0.00290113
0.0026748
0.00248324
0.00231959
0.00217115
0.00203793
0.00193116
0.00185037
0.00178742
0.00165031
0.00143927
0.00124884
0.00072945
0.000841468
0.00113416
0.00157127
0.00203877
0.0025021
0.00296272
0.00343605
0.00386077
0.00412336
0.00429539
0.0043758
0.00436717
0.00428562
0.00415181
0.00394814
0.00368756
0.00340569
0.00313381
0.00289409
0.00269006
0.00251548
0.0023583
0.00221745
0.00210175
0.00201088
0.00194002
0.00180274
0.0015847
0.00137326
0.000792623
0.000805707
0.00099654
0.00138963
0.00188185
0.00239821
0.00293431
0.00349206
0.00399715
0.00432335
0.00452072
0.00461977
0.00461838
0.00453616
0.00439756
0.00418803
0.00392082
0.00363193
0.00335089
0.00310002
0.00288503
0.00270093
0.00253651
0.00238976
0.0022669
0.00216754
0.00208895
0.00195329
0.00173169
0.00150215
0.000905379
0.000882411
0.000938427
0.00123598
0.00171986
0.00227724
0.00288092
0.00351207
0.00409708
0.00449493
0.00471821
0.00483537
0.00484226
0.0047609
0.00461852
0.00440486
0.00413302
0.00383925
0.00355282
0.00329316
0.00306904
0.00287663
0.00270622
0.00255518
0.00242692
0.00232082
0.00223553
0.00210296
0.00188046
0.0016356
0.00106506
0.00101659
0.00100254
0.00114929
0.0015692
0.00214936
0.00281096
0.00351193
0.00417147
0.00463695
0.00489171
0.00502404
0.00503974
0.00496033
0.00481536
0.00459922
0.00432482
0.00402848
0.00373916
0.00347414
0.00324258
0.00304335
0.00286797
0.00271402
0.002582
0.00247097
0.00238049
0.00225241
0.00203115
0.0017736
0.001269
0.00119747
0.00114006
0.00114798
0.00145702
0.00203131
0.00273612
0.00349782
0.00421853
0.00475294
0.00504375
0.00518792
0.00521044
0.00513449
0.00498787
0.00477103
0.00449641
0.00419993
0.00390985
0.00364259
0.00340592
0.0032014
0.00302244
0.00286643
0.0027322
0.00261798
0.00252409
0.00240188
0.0021837
0.0019157
0.00151406
0.00141967
0.00132491
0.00125527
0.00139964
0.00193317
0.00266359
0.00347517
0.00424879
0.00484631
0.0051766
0.00532688
0.0053533
0.0052824
0.00513491
0.00491945
0.00464725
0.00435328
0.00406473
0.00379728
0.00355905
0.00335072
0.00316949
0.00301254
0.00287736
0.00276151
0.00266606
0.00255115
0.00233766
0.0020612
0.00179511
0.00167713
0.00154806
0.00142003
0.00142118
0.00186434
0.00259936
0.00344871
0.00426716
0.00491911
0.00528072
0.00543626
0.00546685
0.00540184
0.00525434
0.00504268
0.00477589
0.00448726
0.00420273
0.00393753
0.00370017
0.00349066
0.00330843
0.00315177
0.00301681
0.00290073
0.00280563
0.00269941
0.00249218
0.00220923
0.00210367
0.00196189
0.00179988
0.00162101
0.00151889
0.00183125
0.00254759
0.00342196
0.00427603
0.00497136
0.00535339
0.0055123
0.00554832
0.00548885
0.00534269
0.00513765
0.00487954
0.00459946
0.0043216
0.0040618
0.00382715
0.00361926
0.00343763
0.00328269
0.00314909
0.0030341
0.00294126
0.00284514
0.00264573
0.00235828
0.00242778
0.00226349
0.00207035
0.001848
0.00167568
0.00180936
0.00251037
0.00339703
0.00427657
0.00500108
0.00538916
0.00555102
0.00559203
0.00553795
0.00539507
0.00519956
0.00495368
0.00468563
0.00441836
0.00416632
0.00393694
0.00373297
0.00355427
0.00340226
0.00327141
0.00315896
0.0030703
0.00298559
0.00279585
0.00250627
0.00275235
0.00256874
0.00234818
0.0020883
0.00185268
0.0018737
0.00249311
0.0033745
0.00426592
0.00498776
0.00537131
0.00554397
0.00558963
0.00554086
0.00540403
0.00522121
0.00499128
0.00473971
0.0044865
0.00424528
0.00402424
0.00382649
0.00365295
0.00350548
0.00337906
0.00327101
0.00318851
0.00311546
0.00293853
0.00265009
0.00305861
0.00286154
0.00261998
0.00232937
0.00203826
0.00195956
0.00248766
0.00335246
0.00422178
0.00491631
0.00529361
0.00548043
0.00552922
0.00548611
0.00535845
0.00519227
0.00498248
0.00475119
0.00451588
0.00428933
0.00407962
0.00389048
0.00372527
0.00358468
0.00346483
0.00336359
0.00328938
0.00322655
0.00306742
0.00278515
0.00332514
0.00312354
0.00287058
0.00255928
0.00222267
0.0020623
0.00247047
0.00330337
0.004127
0.00477205
0.00516262
0.00534474
0.00539428
0.00535809
0.0052431
0.00509818
0.0049118
0.00470435
0.00449101
0.00428324
0.0040885
0.00391293
0.00375946
0.00362862
0.00351805
0.00342695
0.00336301
0.0033107
0.00317381
0.00290399
0.0035282
0.00333474
0.00308245
0.00276337
0.00238913
0.00216717
0.00245567
0.0032073
0.00395908
0.00456907
0.00494761
0.00511285
0.00516412
0.00513813
0.00503971
0.00491948
0.00475936
0.00457857
0.00439085
0.00420673
0.00403291
0.00387546
0.00373754
0.00362026
0.00352308
0.00344634
0.00339447
0.00335399
0.00324361
0.00299462
0.00364574
0.00347522
0.0032345
0.00291391
0.00251643
0.00224041
0.00243421
0.00306935
0.00373901
0.00427921
0.00461217
0.00476592
0.00482228
0.00480973
0.00473333
0.00463989
0.00450745
0.00435659
0.00419763
0.00403951
0.00388996
0.00375466
0.00363669
0.00353775
0.00345837
0.00339947
0.00336319
0.00333727
0.00325664
0.00303891
0.00367069
0.00352615
0.00329933
0.00298236
0.00258451
0.00226751
0.00234969
0.00289098
0.00343209
0.00386817
0.00415514
0.00431078
0.00437716
0.00438602
0.00433974
0.0042741
0.00417189
0.00405067
0.00391873
0.00378665
0.00366169
0.00354921
0.00345268
0.00337401
0.00331414
0.00327469
0.00325514
0.00324568
0.00319343
0.0030155
0.00360756
0.00348225
0.00327405
0.00296932
0.00258751
0.00225094
0.00220202
0.00259514
0.00303915
0.00340462
0.00366037
0.00382191
0.00391259
0.00395231
0.00394223
0.00390546
0.00383428
0.00374158
0.00363521
0.00352516
0.00341927
0.00332434
0.00324462
0.00318113
0.00313368
0.00310516
0.00309513
0.00309473
0.00305763
0.00291772
0.00348617
0.00337953
0.0031982
0.00292713
0.00258168
0.00224719
0.0021114
0.00235641
0.00272691
0.00305116
0.00329281
0.00346221
0.00357163
0.00363483
0.00365411
0.0036407
0.00359771
0.00353103
0.00344901
0.00335947
0.00326965
0.00318703
0.0031164
0.00305922
0.00301532
0.00298531
0.00296764
0.00295341
0.00291065
0.00278757
0.003387
0.00330687
0.00316243
0.00294725
0.0026759
0.00240511
0.00226885
0.00240933
0.00269131
0.00296108
0.00316834
0.00332089
0.00342505
0.00348997
0.00351833
0.00351635
0.00349355
0.00344927
0.00339172
0.00332644
0.00325895
0.00319543
0.00314028
0.00309406
0.00305537
0.00302169
0.00299031
0.00295311
0.002886
0.00275642
0.00329336
0.00324223
0.00315948
0.00303441
0.00287599
0.00270825
0.00262363
0.00270473
0.00287991
0.00305116
0.00318764
0.00329186
0.0033647
0.00340916
0.00342457
0.00341935
0.00340081
0.0033692
0.00332943
0.00328627
0.00324362
0.00320503
0.00317337
0.00314877
0.00312978
0.00310863
0.0030845
0.00305018
0.00298554
0.00288288
0.00326146
0.00324665
0.00321595
0.00316054
0.00307493
0.00298692
0.00294622
0.0029803
0.0030559
0.00312376
0.00318159
0.00323099
0.00326644
0.00328585
0.00328642
0.00327561
0.00325932
0.00323691
0.00321264
0.0031905
0.00317342
0.00316329
0.00316093
0.00316504
0.00317164
0.00317849
0.00318127
0.00318085
0.00315904
0.00311482
0.000198242
0.000212772
0.000215155
0.000214162
0.000210798
0.000205936
0.00020013
0.000193748
0.000187031
0.000180253
0.000173573
0.000167252
0.000161359
0.000156056
0.000151143
0.000146052
0.000139961
0.000133069
0.000125813
0.000118406
0.000110193
0.000100169
8.7848e-05
0.000372854
0.00037751
0.000366671
0.000360547
9.19722e-05
0.000103007
0.00011409
0.000773507
0.000964284
0.00103479
0.00103998
0.0010197
0.000989217
0.000955172
0.000920455
0.00088582
0.000851923
0.000817336
0.000782629
0.000744102
0.000701389
0.000649521
0.000589318
0.000525713
0.000479204
0.000451881
0.000440548
0.000431885
0.000413293
0.000366454
0.000400377
0.000473022
0.000461717
0.000377209
0.000324763
0.00044325
0.000544071
0.00125488
0.00158165
0.00175708
0.0018379
0.00186152
0.00185349
0.00182826
0.00179346
0.0017527
0.00170707
0.00165411
0.00159402
0.00152055
0.00143225
0.00132388
0.00119589
0.00105924
0.000955243
0.00088644
0.000848096
0.000822808
0.000778629
0.000690117
0.000650396
0.000708173
0.000725526
0.000613956
0.000527864
0.000637597
0.00080413
0.00158643
0.00204633
0.00228798
0.00243226
0.00250849
0.00254316
0.00255231
0.0025432
0.00252055
0.00248415
0.0024303
0.0023576
0.00225933
0.00213162
0.00197372
0.00178598
0.00158662
0.001427
0.00131491
0.00124412
0.00119217
0.00112305
0.00100094
0.000910488
0.000944931
0.000977626
0.000860678
0.000722123
0.000768954
0.00093117
0.00180097
0.00229435
0.00265265
0.00285247
0.00298658
0.00307477
0.00313505
0.00316971
0.00318104
0.00316733
0.00312381
0.00304695
0.00292713
0.00276886
0.00257003
0.0023318
0.00207876
0.00187152
0.00171981
0.001617
0.0015386
0.00144686
0.00130001
0.00117237
0.0011769
0.00121287
0.00110502
0.00093023
0.000902035
0.00104249
0.00184953
0.00234406
0.00275118
0.00307745
0.00331743
0.00347225
0.00360096
0.00369603
0.0037538
0.00377121
0.00374334
0.00366608
0.00353284
0.0033477
0.0031145
0.00283352
0.0025374
0.00228772
0.00209993
0.00196686
0.00186365
0.00175228
0.00158807
0.00143388
0.00140665
0.00143569
0.0013427
0.0011506
0.00105583
0.00116298
0.00179505
0.00228589
0.00275321
0.003152
0.00347332
0.00375268
0.00397033
0.00414114
0.00425597
0.00431102
0.00430089
0.00422597
0.00408169
0.00387503
0.00361284
0.00329618
0.0029651
0.00267774
0.002457
0.00229585
0.00216969
0.00204134
0.00186541
0.0016931
0.00163576
0.00165004
0.00157239
0.00137681
0.0012312
0.00129724
0.00167106
0.00216861
0.00268684
0.00315829
0.00356621
0.00391937
0.00425851
0.00452011
0.00469919
0.004798
0.00480661
0.00473351
0.0045806
0.00435724
0.00407028
0.00372438
0.00336444
0.00304388
0.00279295
0.00260604
0.00245888
0.00231579
0.00213213
0.00194826
0.00186475
0.00186058
0.0017948
0.00160433
0.00142149
0.00144615
0.00152246
0.00199971
0.00255825
0.00309983
0.00359191
0.00403685
0.0044573
0.00484722
0.00509141
0.00523691
0.0052683
0.00519522
0.00503483
0.00479912
0.00449134
0.00412173
0.00373732
0.00338807
0.00310965
0.00289925
0.00273304
0.00257714
0.00238854
0.00219805
0.00209347
0.00207006
0.00201159
0.0018307
0.00162221
0.00160761
0.00137428
0.00179926
0.00237789
0.00298617
0.00356524
0.00410591
0.00461971
0.00510498
0.00543658
0.00563263
0.00568713
0.00561676
0.00544819
0.0052041
0.00487976
0.00449088
0.00408501
0.00371206
0.00340865
0.00317712
0.00299381
0.002827
0.00263511
0.0024418
0.00232143
0.00228002
0.00222462
0.00205488
0.00183073
0.00177976
0.00124462
0.00161032
0.00217481
0.00283488
0.00349886
0.00413743
0.00474734
0.00531911
0.00575225
0.00598667
0.00606442
0.00600202
0.00582452
0.00557478
0.00523816
0.00483358
0.00440909
0.00401651
0.00369142
0.00344114
0.00324283
0.00306639
0.00287291
0.00267947
0.00254821
0.00249114
0.00243561
0.00227674
0.00204688
0.00195733
0.00115882
0.00144004
0.00197743
0.00266854
0.00340643
0.00413567
0.00484608
0.00550484
0.00602321
0.00629338
0.00640368
0.00635212
0.00616712
0.00591242
0.00556804
0.00515076
0.00471048
0.00430229
0.0039593
0.00369287
0.00348135
0.00329644
0.00310267
0.00291143
0.00277336
0.00270355
0.00264586
0.00249646
0.00226842
0.00213983
0.00112757
0.00133562
0.00179017
0.00249155
0.00328551
0.00410785
0.00491764
0.00565947
0.00624763
0.00655936
0.00670693
0.00666784
0.00647703
0.00621755
0.0058699
0.00544254
0.00498967
0.00457004
0.00421357
0.00393361
0.00371054
0.00351832
0.00332519
0.00313798
0.00299646
0.00291691
0.00285589
0.00271407
0.00249097
0.00232873
0.00119883
0.00131454
0.00167782
0.00231526
0.00314722
0.00405663
0.00496243
0.00578004
0.00642798
0.00679974
0.00697603
0.00694766
0.00675461
0.00648942
0.00614238
0.0057079
0.00524678
0.00481997
0.0044552
0.00416422
0.00393133
0.00373288
0.00354108
0.00335928
0.00321679
0.00313035
0.00306539
0.00292906
0.0027108
0.00252399
0.0013804
0.00145179
0.00165475
0.00219376
0.00301371
0.00398543
0.00497799
0.00587202
0.00657899
0.00700659
0.00720704
0.00718819
0.00699759
0.00672601
0.00638195
0.00594459
0.005481
0.00505203
0.00468393
0.00438483
0.00414396
0.00394044
0.00375063
0.00357492
0.00343316
0.00334234
0.00327309
0.00314033
0.00292712
0.00272231
0.00167229
0.00170947
0.00180407
0.00215288
0.00291488
0.00392226
0.00498572
0.00594591
0.0066989
0.00717698
0.0073929
0.00738336
0.00720054
0.00692335
0.00658307
0.006149
0.00569024
0.005265
0.00489815
0.00459421
0.00434754
0.0041404
0.00395322
0.00378339
0.0036436
0.00355036
0.00347646
0.00334564
0.00313745
0.00292062
0.00205194
0.00203962
0.00204318
0.00220062
0.00285805
0.00387241
0.00498795
0.00600148
0.00678823
0.00731591
0.00751899
0.00752412
0.00735504
0.00707465
0.0067391
0.00631624
0.00587059
0.00545531
0.00509412
0.00478923
0.00453952
0.00433049
0.00414612
0.00398168
0.00384506
0.00375056
0.00367149
0.00354139
0.00333803
0.00311444
0.00247346
0.0024048
0.00234288
0.00236476
0.00284769
0.00383833
0.00498544
0.00603771
0.00685396
0.00739135
0.00758627
0.00760162
0.00744892
0.00717217
0.00684109
0.00643957
0.00601521
0.00561659
0.00526534
0.00496407
0.00471457
0.00450557
0.00432438
0.00416541
0.00403279
0.00393712
0.00385222
0.00372226
0.00352401
0.0032973
0.00288623
0.00277539
0.00265368
0.00259137
0.00287431
0.00381793
0.00497699
0.00605179
0.00688229
0.00737475
0.00757994
0.00760293
0.0074682
0.00720416
0.0068795
0.0065095
0.0061145
0.00573869
0.00540153
0.00510914
0.00486368
0.00465726
0.00448036
0.00432726
0.00419908
0.00410136
0.00401034
0.00388084
0.00368901
0.00346286
0.00327195
0.0031221
0.00295406
0.00283357
0.00297505
0.00380948
0.00495933
0.00603333
0.0068117
0.0072624
0.00748453
0.00751341
0.00739886
0.00715596
0.0068439
0.0065145
0.00615553
0.00580724
0.00548879
0.00521047
0.00497341
0.00477297
0.00460214
0.00445525
0.00433105
0.00423128
0.00413498
0.00400759
0.00382472
0.00360486
0.00360527
0.00342436
0.00322089
0.00304622
0.00307569
0.00377521
0.00490182
0.0059067
0.00660043
0.00706681
0.00728285
0.00732143
0.00722668
0.00701306
0.00672488
0.00644222
0.00612294
0.00580471
0.00551102
0.0052506
0.00502617
0.00483499
0.0046717
0.00453158
0.00441198
0.00431207
0.00421338
0.00409133
0.00392111
0.00371467
0.0038684
0.00366627
0.00343798
0.00322437
0.00318453
0.00370787
0.00471962
0.00562992
0.00629145
0.00675673
0.00696422
0.00701685
0.00694312
0.00676651
0.00651719
0.00628287
0.00600272
0.00571899
0.00545244
0.00521257
0.00500265
0.00482264
0.00466958
0.00453878
0.00442625
0.00432928
0.00423323
0.00412099
0.00396729
0.00378252
0.00404929
0.00383742
0.00359488
0.003354
0.00325679
0.00360391
0.0044556
0.00526532
0.00591433
0.00632088
0.00653001
0.00660055
0.00655421
0.0064239
0.00622455
0.0060366
0.00579682
0.00554871
0.00530961
0.00509054
0.0048979
0.00473194
0.00459082
0.00447072
0.00436668
0.00427524
0.00418768
0.00408914
0.00395347
0.00379665
0.00414445
0.00393463
0.00368654
0.0034221
0.00325439
0.00343339
0.00418377
0.00487234
0.00541914
0.00578705
0.00600757
0.00609999
0.00609373
0.00601706
0.00587456
0.00572989
0.0055316
0.00531885
0.0051093
0.00491255
0.00473669
0.00458351
0.00445244
0.00434082
0.00424469
0.00416081
0.00408324
0.00399883
0.00387873
0.00374879
0.00416533
0.00396807
0.00372209
0.00343794
0.00320284
0.0032234
0.00377952
0.0043727
0.00486239
0.00522572
0.00546096
0.00558719
0.00563032
0.00560898
0.00552331
0.00541703
0.00525829
0.0050797
0.00489853
0.00472401
0.00456417
0.00442212
0.00429856
0.00419214
0.00410031
0.00402076
0.00394899
0.00387312
0.00376361
0.00364298
0.00414236
0.00396687
0.0037338
0.00344552
0.0031625
0.00305578
0.00337579
0.00388993
0.00436752
0.00473523
0.00499168
0.00515471
0.00524217
0.00526595
0.0052264
0.00514919
0.00502318
0.00487437
0.00471943
0.00456695
0.0044243
0.00429522
0.00418073
0.00407999
0.00399106
0.00391227
0.00384008
0.00376362
0.00365459
0.0035202
0.00412504
0.00397974
0.00377467
0.00350925
0.0032239
0.00305363
0.00320067
0.00361214
0.00405317
0.00441512
0.00467814
0.00485891
0.0049692
0.00501644
0.00500146
0.00493896
0.00483299
0.00470742
0.00457538
0.00444573
0.00432485
0.00421617