/*--------------------------------*- C++ -*----------------------------------*\
| =========                 |                                                 |
| \\      /  F ield         | OpenFOAM: The Open Source CFD Toolbox           |
|  \\    /   O peration     | Version:  5.0                                   |
|   \\  /    A nd           | Web:      www.OpenFOAM.org                      |
|    \\/     M anipulation  |                                                 |
\*---------------------------------------------------------------------------*/
FoamFile
{
    version     2.0;
    format      ascii;
    class       volScalarField;
    location    "1000/air";
    object      epsilon;
}
// * * * * * * * * * * * * * * * * * * * * * * * * * * * * * * * * * * * * * //

dimensions      [0 2 -3 0 0 0 0];

internalField   nonuniform List<scalar> 
243000
(
2.04766
2.9137
3.42816
3.82187
4.08798
4.23213
4.26761
4.20897
4.06981
3.86926
3.62512
3.36946
3.13171
2.94771
2.83193
2.77102
2.70488
2.59637
2.43813
2.24453
2.03328
1.81861
1.61172
1.42464
1.25937
1.08731
0.884828
0.680405
0.571751
0.617214
1.12777
1.50376
1.6759
1.77687
1.8195
1.8197
1.78944
1.73583
1.66446
1.58179
1.49407
1.4119
1.34146
1.29316
1.26513
1.24439
1.2039
1.13865
1.05554
0.965285
0.875096
0.788489
0.707301
0.636428
0.580051
0.524196
0.455514
0.353242
0.262401
0.283941
1.35853
1.85624
2.09584
2.24428
2.31517
2.33184
2.30993
2.25975
2.18831
2.10383
2.01359
1.93049
1.86107
1.81778
1.79485
1.77091
1.70816
1.6047
1.47568
1.33841
1.20407
1.07742
0.960086
0.856364
0.77066
0.692518
0.608035
0.497579
0.379284
0.320619
1.28696
1.91505
2.28033
2.50038
2.62131
2.67689
2.6851
2.65951
2.6088
2.54266
2.46885
2.40231
2.34974
2.32452
2.31622
2.29548
2.21458
2.07585
1.90235
1.71855
1.53963
1.37209
1.21762
1.07988
0.963094
0.858368
0.754208
0.633187
0.500245
0.403857
1.08222
1.75166
2.22589
2.54951
2.75549
2.87017
2.92883
2.94655
2.93441
2.90377
2.86256
2.82699
2.80384
2.80657
2.81944
2.80568
2.71008
2.53986
2.32551
2.09801
1.87632
1.66899
1.47805
1.30662
1.15875
1.02608
0.899699
0.765128
0.619904
0.500264
0.900503
1.49823
2.0194
2.43502
2.72655
2.92804
3.05748
3.13474
3.17662
3.19584
3.20023
3.20724
3.22322
3.26133
3.29964
3.29497
3.18765
2.98998
2.73901
2.47156
2.21005
1.96506
1.73923
1.53527
1.35706
1.197
1.04675
0.896069
0.737795
0.597179
0.736353
1.25171
1.76678
2.21082
2.58505
2.87019
3.08236
3.23796
3.34656
3.4275
3.48827
3.54735
3.60974
3.68821
3.75452
3.76004
3.64382
3.42251
3.13938
2.83601
2.53808
2.25807
1.99938
1.76448
1.55719
1.37071
1.1959
1.02768
0.855416
0.696143
0.650428
1.00599
1.51901
1.9775
2.36727
2.72811
3.0233
3.26697
3.45464
3.60714
3.73288
3.85133
3.96558
4.08757
4.1832
4.19949
4.07679
3.83572
3.52461
3.18941
2.85852
2.54642
2.25713
1.99315
1.75828
1.54647
1.34705
1.16071
0.974058
0.798513
0.705155
0.817935
1.27117
1.74593
2.1614
2.53586
2.90262
3.23106
3.51225
3.74218
3.93967
4.12307
4.293
4.4603
4.58551
4.61288
4.48598
4.22871
3.89363
3.53045
3.17006
2.82873
2.51132
2.22037
1.95965
1.72369
1.50004
1.29537
1.09427
0.904078
0.828478
0.764947
1.0423
1.50921
1.95664
2.35781
2.74273
3.14846
3.52145
3.83806
4.11342
4.36601
4.59422
4.8074
4.96173
5.00039
4.87127
4.60137
4.24598
3.85842
3.47182
3.10415
2.76115
2.44554
2.16076
1.90195
1.65595
1.43215
1.21649
1.01216
0.988982
0.879402
0.899782
1.27687
1.74692
2.18389
2.59579
3.03463
3.49363
3.90436
4.25812
4.58314
4.87112
5.12995
5.31232
5.36224
5.23266
4.95344
4.58158
4.17308
3.76347
3.37216
3.00607
2.66814
2.3612
2.0809
1.81442
1.57127
1.34111
1.12251
1.17581
1.05343
0.923635
1.08491
1.534
2.0079
2.45499
2.9146
3.43848
3.94252
4.37798
4.77678
5.12534
5.42898
5.63769
5.69875
5.57019
5.28469
4.90008
4.47418
4.04451
3.6322
3.2454
2.88744
2.56039
2.26015
1.97462
1.71247
1.46777
1.2349
1.38502
1.26035
1.09071
1.00127
1.33608
1.82816
2.31597
2.80552
3.3636
3.95769
4.47762
4.94993
5.35814
5.70496
5.93824
6.01035
5.88403
5.59481
5.20107
4.7611
4.31431
3.88362
3.4784
3.10255
2.75754
2.43915
2.13598
1.85549
1.59623
1.34925
1.61685
1.48982
1.3047
1.10153
1.1934
1.65067
2.1767
2.70312
3.27986
3.95327
4.56094
5.10478
5.57073
5.95846
6.21444
6.29737
6.17436
5.8838
5.48413
5.03345
4.57251
4.12605
3.70476
3.31325
2.95236
2.61762
2.29827
2.00034
1.72663
1.46592
1.87247
1.73901
1.54358
1.29393
1.14357
1.49097
2.03789
2.60494
3.20845
3.93706
4.62873
5.24294
5.76383
6.18989
6.46662
6.56009
6.4413
6.15166
5.74911
5.29093
4.81896
4.35942
3.92461
3.51976
3.14499
2.79567
2.46155
2.1468
1.85886
1.58523
2.15301
2.00799
1.79976
1.52123
1.23034
1.3752
1.90375
2.50994
3.14549
3.91212
4.68373
5.36559
5.93782
6.39939
6.6949
6.79867
6.68514
6.39847
5.99568
5.5333
5.05359
4.58383
4.13813
3.72237
3.33571
2.97347
2.62583
2.2948
1.99363
1.70749
2.45955
2.29759
2.07202
1.77039
1.42189
1.32645
1.78235
2.41819
3.08879
3.88059
4.72722
5.47349
6.09264
6.58671
6.89917
7.01315
6.90617
6.62439
6.22385
5.76024
5.27607
4.79946
4.3458
3.92137
3.52493
3.15126
2.79164
2.44529
2.13137
1.83284
2.7928
2.60852
2.36048
2.03433
1.64165
1.36083
1.68451
2.33121
3.03715
3.84435
4.75955
5.56727
6.22793
6.75128
7.07906
7.20342
7.10446
6.82966
6.4337
5.97209
5.48649
5.00622
4.5476
4.11712
3.71312
3.33007
2.95991
2.59881
2.27259
1.96179
3.15339
2.94123
2.66549
2.31102
1.87991
1.47346
1.62185
2.25149
2.98986
3.8072
4.78042
5.64387
6.34235
6.89195
7.23381
7.36906
7.27987
7.01439
6.62608
6.16943
5.68544
5.20452
4.74372
4.30986
3.90087
3.51064
3.13152
2.75614
2.41794
2.09516
3.54143
3.29585
2.98736
2.60063
2.1312
1.64412
1.59968
2.18195
2.94654
3.77613
4.78744
5.70149
6.43428
7.00728
7.36252
7.50954
7.43212
7.17924
6.80195
6.35311
5.8737
5.39499
4.93487
4.50026
4.0888
3.69399
3.30802
2.91908
2.56858
2.2338
3.95734
3.67259
3.32654
2.90337
2.3938
1.84403
1.6237
2.12554
2.90654
3.74823
4.77994
5.73764
6.50287
7.09539
7.46389
7.62411
7.56137
7.32448
6.9617
6.52398
6.05234
5.57885
5.12218
4.68944
4.27819
3.88162
3.4914
3.09339
2.7276
2.37975
4.402
4.07227
3.68426
3.2201
2.67122
2.06273
1.69414
2.0854
2.87006
3.72267
4.7581
5.74528
6.54068
7.1532
7.53528
7.71107
7.66629
7.44926
7.10514
6.68253
6.22233
5.75759
5.30733
4.87907
4.47069
4.07541
3.68388
3.27989
2.8974
2.53471
4.88003
4.49804
4.06379
3.55623
2.9733
2.29478
1.79707
2.06329
2.83892
3.70123
4.71915
5.72223
6.53636
7.17069
7.57008
7.76471
7.74206
7.55
7.2297
6.82756
6.3837
5.93188
5.49169
5.07101
4.66846
4.27746
3.88763
3.48032
3.07951
2.69973
5.40027
4.95826
4.47781
3.94244
3.2866
2.53277
1.92344
2.06015
2.81817
3.68729
4.66297
5.66204
6.48782
7.13763
7.55322
7.76967
7.77415
7.61484
7.32535
6.95102
6.53072
6.09825
5.67385
5.2655
4.87254
4.48892
4.10332
3.6949
3.27493
2.87606
5.95215
5.47526
4.95864
4.34618
3.60997
2.77639
2.06747
2.08122
2.81353
3.68584
4.62501
5.56419
6.37834
7.02906
7.45563
7.69378
7.7308
7.61043
7.3647
7.02941
6.64303
6.2395
5.83904
5.45044
5.07392
4.70286
4.32472
3.9168
3.4834
3.0652
6.48098
5.97677
5.41216
4.74487
3.9443
3.03613
2.23715
2.142
2.84545
3.7238
4.63152
5.51486
6.27402
6.88172
7.29979
7.54858
7.6226
7.55046
7.35616
7.07274
6.72964
6.35561
5.97267
5.59982
5.24541
4.8936
4.52893
4.12676
3.70572
3.27398
6.95128
6.47187
5.89999
5.20087
4.34864
3.37315
2.49468
2.30725
3.00817
3.90896
4.81026
5.65885
6.38273
6.96575
7.38272
7.64273
7.74497
7.71351
7.56298
7.32014
7.01097
6.66122
6.29193
5.92049
5.55687
5.19617
4.82727
4.43457
4.01363
3.55723
7.70816
7.21491
6.62461
5.90554
5.03126
4.03005
3.11446
2.87003
3.60345
4.55646
5.49989
6.35009
7.06463
7.6374
8.05523
8.31612
8.43072
8.42064
8.29336
8.07063
7.77589
7.43284
7.06162
6.67716
6.28924
5.89729
5.49494
5.06986
4.60587
4.08637
9.37474
8.92895
8.41591
7.80717
7.06901
6.21628
5.4283
5.2789
6.0547
7.07552
8.08994
8.94353
9.6367
10.1714
10.5522
10.7704
10.85
10.8129
10.6651
10.4227
10.1066
9.73723
9.3337
8.90686
8.46448
7.99255
7.49325
6.96546
6.39889
5.76154
17.0713
17.0136
16.9366
16.7923
16.5283
16.1661
15.884
16.0177
16.3937
16.937
17.4679
17.9144
18.2626
18.4912
18.6389
18.6959
18.6798
18.6272
18.5312
18.4083
18.2589
18.0991
17.9392
17.7802
17.6005
17.2329
16.7455
16.2185
15.7436
15.1567
3.85474
5.51495
6.67225
7.57414
8.23406
8.66955
8.89421
8.92669
8.78708
8.51421
8.14442
7.73398
7.31775
6.94126
6.59641
6.22247
5.71087
5.06029
4.32642
3.57716
2.85913
2.20019
1.63207
1.24253
0.981729
0.198226
0.172603
0.149046
0.712424
0.853757
3.07283
3.63794
4.12847
4.51009
4.78102
4.95489
5.03709
5.03527
4.95679
4.81746
4.63753
4.43907
4.23832
4.04916
3.86761
3.64914
3.34389
2.96411
2.55444
2.14673
1.76583
1.41365
1.09225
0.826362
0.645525
0.507925
0.442347
0.45114
0.516764
0.428709
2.99501
3.40361
3.75867
4.01896
4.1977
4.31291
4.36982
4.37272
4.32376
4.2318
4.10985
3.97351
3.83317
3.69839
3.5611
3.38019
3.11186
2.77398
2.41804
2.06423
1.72997
1.41841
1.13136
0.879258
0.699487
0.586461
0.518841
0.483758
0.494236
0.43316
2.87881
3.26336
3.58929
3.80376
3.94684
4.04323
4.10156
4.12349
4.10825
4.05901
3.98331
3.89308
3.79583
3.70004
3.5918
3.43087
3.1748
2.84987
2.50475
2.16192
1.83838
1.536
1.25257
0.996417
0.805022
0.684668
0.608698
0.545522
0.498016
0.436572
2.51806
3.01879
3.37915
3.59878
3.73504
3.83376
3.90874
3.96049
3.98498
3.98149
3.95197
3.90646
3.84964
3.78702
3.7041
3.55825
3.30923
2.98954
2.64538
2.30339
1.97982
1.67668
1.39016
1.12681
0.92249
0.79151
0.706261
0.628621
0.549684
0.482144
1.91543
2.57782
3.04973
3.32996
3.49363
3.61478
3.71918
3.81011
3.88071
3.92608
3.94616
3.94536
3.92756
3.89699
3.83695
3.70426
3.46084
3.1445
2.79942
2.45522
2.12823
1.8212
1.5297
1.25916
1.04277
0.899765
0.805048
0.72074
0.626608
0.554196
1.3281
2.05711
2.59856
2.98666
3.21053
3.37
3.51623
3.65413
3.77608
3.87346
3.94406
3.9892
4.01017
4.01045
3.97151
3.85108
3.61338
3.30071
2.95532
2.6082
2.27673
1.96458
1.66737
1.3903
1.16336
1.00735
0.902381
0.813977
0.713947
0.635706
0.926826
1.55594
2.15764
2.6164
2.89864
3.10565
3.29957
3.49065
3.66724
3.81818
3.9403
4.03065
4.09018
4.12057
4.10083
3.99202
3.76126
3.45338
3.10883
2.75921
2.42317
2.1056
1.80233
1.51927
1.28322
1.11446
0.998019
0.905074
0.803606
0.72234
0.712497
1.12435
1.75251
2.26969
2.60455
2.84157
3.07814
3.32284
3.55549
3.76075
3.9342
4.06817
4.16508
4.22444
4.22228
4.12448
3.90297
3.6007
3.25809
2.90705
2.56685
2.24396
1.93477
1.64596
1.40195
1.22126
1.09265
0.993972
0.891715
0.810315
0.653299
0.832848
1.37464
1.94325
2.33473
2.61152
2.86614
3.15688
3.44394
3.70418
3.92651
4.10226
4.23412
4.32094
4.33534
4.24916
4.03771
3.74184
3.40217
3.05089
2.70723
2.37939
2.06476
1.77062
1.51963
1.32804
1.18793
1.08216
0.978903
0.897042
0.700307
0.751867
1.07058
1.62911
2.08383
2.40396
2.68181
3.00037
3.33681
3.65062
3.91823
4.13356
4.29807
4.41014
4.44038
4.36551
4.16524
3.87649
3.54075
3.18997
2.84383
2.51141
2.19214
1.89369
1.63674
1.4354
1.28476
1.1714
1.06717
0.98483
0.833993
0.818902
0.915731
1.3455
1.8438
2.21661
2.52626
2.85991
3.24046
3.60029
3.91023
4.16332
4.35805
4.49306
4.53845
4.4748
4.28616
4.00496
3.67383
3.32398
2.9761
2.63994
2.31706
2.01556
1.75379
1.54404
1.38409
1.26343
1.15854
1.07636
0.996128
0.968814
0.947994
1.14217
1.62185
2.04427
2.39134
2.74807
3.1543
3.55459
3.90343
4.192
4.41525
4.57157
4.63129
4.57894
4.40143
4.12803
3.80178
3.4531
3.1039
2.76519
2.43996
2.1366
1.87127
1.65468
1.48685
1.35975
1.25466
1.17321
1.18599
1.15686
1.10412
1.09773
1.4395
1.88782
2.27432
2.65516
3.07895
3.51444
3.89869
4.22038
4.4714
4.6481
4.7215
4.68052
4.51328
4.24738
3.92562
3.57793
3.22794
2.88761
2.56151
2.25751
1.98988
1.76814
1.59405
1.46173
1.35704
1.27679
1.40193
1.36811
1.30707
1.20387
1.3209
1.74733
2.17006
2.57804
3.01628
3.48087
3.89675
4.2505
4.529
4.7258
4.81276
4.78308
4.62506
4.36562
4.04721
3.69985
3.34952
3.00841
2.6826
2.37944
2.11066
1.88543
1.70677
1.5707
1.46704
1.38834
1.6426
1.60124
1.53567
1.39239
1.309
1.63558
2.07821
2.51453
2.9685
3.45481
3.89963
4.28536
4.59167
4.80897
4.91004
4.89148
4.74123
4.48639
4.1695
3.82149
3.4708
3.12954
2.80494
2.50374
2.23504
2.00785
1.82633
1.68814
1.58618
1.5092
1.90963
1.85859
1.7862
1.62175
1.42005
1.56667
2.00034
2.46325
2.9347
3.43702
3.91074
4.33028
4.66468
4.9038
5.02021
5.01256
4.86819
4.61523
4.29717
3.94708
3.59546
3.25399
2.93114
2.63255
2.36516
2.1373
1.95459
1.81596
1.7163
1.64089
2.20743
2.14513
2.06173
1.87892
1.60484
1.54533
1.9398
2.42358
2.91335
3.42827
3.93297
4.39109
4.7558
5.0195
5.15327
5.15635
5.01551
4.76096
4.43688
4.0853
3.72973
3.38684
3.06532
2.7695
2.50442
2.27689
2.09443
1.95685
1.85985
1.78547
2.54351
2.46853
2.36914
2.16332
1.83362
1.60876
1.90261
2.39556
2.90349
3.42965
3.97334
4.47629
4.87705
5.17023
5.32444
5.33829
5.19826
4.93716
4.60627
4.24657
3.88363
3.53656
3.21435
2.92091
2.65845
2.43173
2.25047
2.115
2.02051
1.9461
2.92914
2.84008
2.7193
2.48215
2.09848
1.736
1.89013
2.37971
2.90644
3.45587
4.05066
4.60288
5.04843
5.37886
5.55833
5.58352
5.44077
5.17167
4.82695
4.45104
4.07432
3.71772
3.39132
3.09794
2.83673
2.6102
2.43044
2.29763
2.20462
2.12794
3.38213
3.27705
3.12892
2.84892
2.4034
1.91611
1.90297
2.37762
2.93832
3.53122
4.18766
4.80028
5.3049
5.68486
5.89749
5.93532
5.79033
5.50554
5.13588
4.73366
4.33333
3.95816
3.61979
3.32018
3.05574
2.82667
2.64798
2.51788
2.42374
2.34037
3.93081
3.80716
3.62421
3.28823
2.76256
2.14056
1.97014
2.41066
3.02724
3.70072
4.42671
5.1247
5.71202
6.16133
6.42098
6.47676
6.32561
6.01577
5.6075
5.16207
4.72028
4.30983
3.94434
3.62523
3.34719
3.10994
2.92968
2.80014
2.69912
2.59989
4.62426
4.47807
4.2514
3.84788
3.21227
2.43279
2.10688
2.52141
3.23084
4.02406
4.8661
5.6927
6.4022
6.95409
7.28688
7.37191
7.21347
6.8645
6.39467
5.87666
5.35988
4.88153
4.45808
4.09309
3.78412
3.52898
3.33559
3.19461
3.07189
2.93694
5.55504
5.38045
5.10437
4.62749
3.83072
2.85762
2.36299
2.7831
3.64942
4.66617
5.73354
6.75706
7.66411
8.38201
8.84152
8.98308
8.82324
8.41652
7.84682
7.20441
6.55828
5.95397
5.41482
4.951
4.56149
4.24393
3.99871
3.80758
3.62534
3.41168
6.91988
6.72153
6.40618
5.79456
4.79817
3.59138
2.91067
3.39689
4.56834
5.99734
7.50036
8.93275
10.181
11.1883
11.8905
12.1577
12.032
11.5576
10.818
9.94724
9.04801
8.18555
7.3986
6.70783
6.11541
5.62346
5.21735
4.8773
4.54166
4.1551
9.22665
8.98622
8.55855
7.80005
6.59715
5.12763
4.27363
4.97472
6.73362
8.95155
11.2674
13.4566
15.352
16.8993
18.043
18.5444
18.4813
17.9041
16.9111
15.6532
14.2856
12.927
11.6468
10.4754
9.41994
8.49271
7.68391
6.96689
6.25292
5.48159
13.5257
13.1583
12.6227
11.7798
10.4933
8.9505
8.14123
9.33058
12.1441
15.7459
19.4023
22.78
25.6518
27.9865
29.7437
30.5814
30.6464
29.9812
28.6684
26.8699
24.789
22.6232
20.4908
18.4427
16.4964
14.6758
12.9837
11.3956
9.82532
8.22059
22.1292
21.595
21.0138
20.2808
19.3221
18.4816
18.5213
20.6641
24.8745
30.1997
35.3851
40.0112
43.8325
46.8539
49.0509
50.1303
50.3696
49.7234
48.2078
45.9623
43.1942
40.1394
36.9692
33.745
30.4909
27.2475
24.0476
20.9014
17.759
14.636
35.0657
34.7904
34.7703
34.7687
34.9611
36.0691
38.1395
41.6224
46.6435
52.2645
57.6168
62.2544
65.9643
68.7359
70.2636
70.6959
70.5531
69.5812
67.8206
65.3682
62.3843
59.0055
55.3971
51.6747
47.885
43.993
40.0197
35.9466
31.7818
27.7017
39.8092
40.2404
41.2648
42.0846
42.8093
44.1841
47.1479
51.6818
55.9493
59.6067
62.9782
66.0338
68.4158
69.8662
69.6602
68.3586
66.9884
65.022
62.6507
60.0112
57.2638
54.4867
51.7797
49.2614
47.0176
44.9537
43.0739
41.3919
39.8028
38.3716
5.65352
8.14518
9.77544
11.1392
12.2024
12.978
13.4733
13.6957
13.6534
13.3802
12.9073
12.3014
11.5911
10.8282
9.99352
9.00436
7.7783
6.45333
5.18018
4.03841
2.99977
2.04828
1.25511
0.251024
0.224286
0.190231
0.17235
0.753425
0.917982
1.07411
3.83802
4.77533
5.47976
6.04277
6.45376
6.73727
6.90586
6.96523
6.92091
6.7832
6.56897
6.29725
5.98753
5.64742
5.2707
4.79636
4.21921
3.62494
3.08116
2.57968
2.076
1.54595
1.02346
0.55404
0.382545
0.333698
0.360978
0.474811
0.519165
0.500511
3.61358
4.45685
5.08963
5.52094
5.79633
5.95667
6.02589
6.01865
5.94132
5.80415
5.61951
5.40134
5.16217
4.90765
4.62091
4.24891
3.78915
3.32
2.89824
2.50417
2.08101
1.62475
1.1398
0.702246
0.491888
0.405537
0.390972
0.423403
0.46349
0.500221
3.52391
4.34782
4.98157
5.39536
5.63281
5.74655
5.77704
5.74568
5.66203
5.53519
5.37405
5.19022
4.99032
4.78311
4.54131
4.2114
3.78816
3.36175
2.97422
2.6093
2.2165
1.77981
1.30009
0.851425
0.603301
0.488718
0.443625
0.431837
0.440199
0.49427
3.42465
4.22219
4.86381
5.27942
5.50832
5.6072
5.62797
5.59812
5.52857
5.42631
5.29619
5.14848
4.99164
4.81882
4.60722
4.30206
3.90149
3.49227
3.11568
2.7588
2.37624
1.94699
1.46705
1.00518
0.722291
0.582516
0.514137
0.473305
0.461043
0.52294
3.15651
3.98694
4.65784
5.0945
5.33028
5.43414
5.46638
5.4588
5.42083
5.35645
5.26703
5.16134
5.0419
4.90375
4.71688
4.4297
4.04589
3.64821
3.27643
2.92081
2.54078
2.11407
1.63298
1.16077
0.84737
0.68329
0.594794
0.535692
0.50888
0.572843
2.64581
3.53125
4.29355
4.78992
5.06435
5.20027
5.26525
5.29734
5.30599
5.29095
5.25008
5.18928
5.10904
5.00322
4.83817
4.56659
4.19819
3.81158
3.44353
3.08649
2.7054
2.27873
1.79671
1.31749
0.977889
0.789522
0.681587
0.60963
0.573221
0.633078
2.05921
2.92271
3.75448
4.33828
4.70525
4.90202
5.02245
5.11041
5.17725
5.21957
5.23338
5.22066
5.1796
5.10432
4.95949
4.70349
4.35162
3.97725
3.6131
3.25337
2.86903
2.44088
1.95855
1.47522
1.11364
0.900854
0.773016
0.689743
0.645485
0.69828
1.53912
2.28107
3.15261
3.82423
4.26518
4.55101
4.74505
4.90309
5.03703
5.14262
5.2139
5.25116
5.24897
5.20267
5.07726
4.83856
4.50522
4.14477
3.78464
3.42114
3.03181
2.60097
2.11924
1.63408
1.2547
1.01824
0.869677
0.774273
0.722185
0.766035
1.15873
1.70699
2.54848
3.29191
3.81163
4.1665
4.44659
4.68382
4.89058
5.06261
5.19423
5.27976
5.31692
5.29776
5.19176
4.97278
4.66059
4.31542
3.95895
3.59037
3.19434
2.75975
2.2797
1.79453
1.40123
1.14264
0.973384
0.863933
0.803111
0.837404
0.92322
1.28512
1.99553
2.77222
3.36658
3.79459
4.1415
4.46263
4.74448
4.98375
5.17634
5.30821
5.38427
5.39149
5.3056
5.10942
4.82084
4.49122
4.13723
3.76197
3.3576
2.91851
2.44042
1.95728
1.55364
1.27505
1.08599
0.961002
0.889743
0.913033
0.822648
1.03323
1.55574
2.29416
2.94734
3.44651
3.85859
4.25012
4.6052
4.91287
5.16164
5.33934
5.45312
5.48783
5.42326
5.25331
4.98994
4.67496
4.32114
3.93722
3.523
3.07869
2.60242
2.12303
1.71243
1.4166
1.20933
1.06821
0.984594
0.995883
0.807321
0.93261
1.27239
1.89525
2.57069
3.1316
3.60566
4.05243
4.48103
4.85343
5.15217
5.37669
5.52815
5.5923
5.55088
5.41069
5.17282
4.87021
4.51327
4.11802
3.69248
3.24214
2.7674
2.29287
1.87851
1.56852
1.34519
1.18816
1.09085
1.08866
0.871275
0.93971
1.15285
1.62054
2.25594
2.85927
3.38756
3.88697
4.37778
4.80435
5.14927
5.42515
5.61581
5.71233
5.69711
5.58973
5.3766
5.08181
4.71727
4.30745
3.86882
3.41152
2.93788
2.46875
2.05335
1.73248
1.49561
1.32339
1.2121
1.19334
0.996028
1.05847
1.1661
1.46568
2.01277
2.63571
3.21008
3.75393
4.29098
4.7683
5.1612
5.49206
5.72488
5.85784
5.87374
5.80107
5.60947
5.31652
4.93882
4.51053
4.05651
3.59093
3.11767
2.65392
2.2394
1.91099
1.66315
1.47665
1.35057
1.31284
1.17925
1.24636
1.30715
1.43307
1.84753
2.45024
3.06172
3.6471
4.22181
4.74824
5.19844
5.58772
5.86756
6.04231
6.09637
6.05891
5.88326
5.58477
5.18715
4.73558
4.26282
3.78682
3.3125
2.85379
2.44091
2.10797
1.85129
1.65126
1.5091
1.4499
1.42581
1.48206
1.5168
1.53299
1.76926
2.30919
2.94285
3.56646
4.17365
4.74615
5.278
5.72643
6.061
6.28557
6.38545
6.38274
6.21601
5.90297
5.47738
4.99623
4.49973
4.00977
3.53225
3.07675
2.66513
2.32976
2.06535
1.8518
1.69156
1.60707
1.74193
1.77015
1.77444
1.7177
1.77144
2.21811
2.85407
3.51189
4.15212
4.78854
5.40782
5.92832
6.32986
6.61598
6.77033
6.80098
6.63587
6.29755
5.83439
5.31509
4.78777
4.2784
3.79291
3.33648
2.92469
2.58706
2.3138
2.08491
1.90303
1.78765
2.12888
2.12031
2.08664
1.96842
1.88787
2.18106
2.79605
3.48402
4.16797
4.9035
5.61431
6.22509
6.71079
7.07548
7.29522
7.35851
7.18746
6.81245
6.2998
5.7308
5.16288
4.62433
4.12158
3.6574
3.24336
2.89817
2.61059
2.36112
2.15102
1.99693
2.61132
2.55576
2.46974
2.27841
2.07632
2.19055
2.76962
3.48723
4.26418
5.11728
5.93866
6.66707
7.26132
7.72912
8.03011
8.12801
7.94486
7.52234
6.94564
6.31163
5.68783
5.1033
4.56898
4.08657
3.66
3.29398
2.97905
2.69787
2.44825
2.24683
3.2228
3.10578
2.94981
2.66736
2.3448
2.29244
2.7905
3.57301
4.49497
5.47681
6.45156
7.33549
8.07791
8.68391
9.09188
9.23283
9.03595
8.55685
7.90011
7.18103
6.47714
5.82224
5.23725
4.71148
4.24017
3.82608
3.45851
3.12491
2.81651
2.54732
4.01228
3.81768
3.57116
3.17413
2.70858
2.49025
2.92606
3.81218
4.90402
6.0887
7.27506
8.37702
9.32849
10.125
10.6848
10.8904
10.6884
10.1487
9.39901
8.56774
7.75837
6.99485
6.29779
5.66694
5.09473
4.58161
4.11747
3.69502
3.29489
2.92515
5.06136
4.77278
4.4154
3.87816
3.23925
2.84614
3.23701
4.27674
5.63526
7.13524
8.64251
10.0641
11.3179
12.386
13.1775
13.4932
13.3168
12.7251
11.8874
10.9084
9.90414
8.92995
8.01932
7.18272
6.41262
5.71179
5.08007
4.50531
3.95609
3.43142
6.52281
6.12812
5.64461
4.94584
4.09476
3.50918
3.87588
5.17823
6.9613
8.96546
10.9929
12.9139
14.6116
16.0725
17.2344
17.7426
17.6613
17.0397
16.042
14.7964
13.4609
12.1247
10.8433
9.64205
8.5263
7.50546
6.58388
5.74632
4.94588
4.172
8.71362
8.22077
7.6147
6.7458
5.64587
4.85552
5.26192
6.98522
9.45897
12.271
15.1057
17.7816
20.1694
22.2183
23.9009
24.6611
24.6614
23.9601
22.7251
21.1038
19.2898
17.412
15.5533
13.7673
12.0811
10.5222
9.10215
7.80528
6.57551
5.38754
12.3043
11.7527
11.0615
10.0469
8.7478
7.81885
8.40259
10.7851
14.3114
18.3325
22.3185
26.022
29.2984
32.0546
34.3417
35.3682
35.437
34.6363
33.1227
31.0423
28.6209
26.0296
23.3799
20.7558
18.21
15.8
13.561
11.49
9.52108
7.62781
18.5942
18.0361
17.3661
16.3936
15.1412
14.4044
15.4755
18.7714
23.5816
29.1052
34.4317
39.254
43.4324
46.8305
49.5591
50.6663
50.6905
49.7134
47.9053
45.3779
42.3559
39.0531
35.5906
32.0484
28.4797
24.9621
21.5605
18.3139
15.174
12.1465
29.1732
28.6067
28.1546
27.6976
27.2073
27.3821
29.4439
33.6536
39.4835
46.0814
52.3394
57.8291
62.4526
65.9767
68.3754
68.8155
68.2621
66.749
64.452
61.5557
58.2473
54.6875
50.9532
47.0489
42.9831
38.7785
34.4726
30.1195
25.7291
21.4106
41.5049
41.2782
41.4669
41.807
42.6367
44.838
48.4373
53.3445
59.2161
65.3877
71.2155
76.1478
80.0476
82.4513
82.7746
80.9191
78.6375
75.7454
72.6444
69.3667
66.0446
62.7292
59.4903
56.3452
53.2351
50.0435
46.6876
43.1219
39.3285
35.5131
43.5353
44.2326
45.3226
46.3333
47.5784
49.9682
54.1632
59.6024
64.908
69.6969
74.0699
77.6268
79.9543
80.5447
78.6244
74.845
71.1873
67.1985
63.3917
59.8458
56.7056
53.9479
51.5838
49.6187
48.0395
46.7161
45.5601
44.5136
43.485
42.6153
8.04196
11.183
13.0259
14.6287
15.9502
16.9863
17.725
18.138
18.2006
17.9278
17.3323
16.4865
15.4111
14.1689
12.7293
11.004
9.03189
7.24622
5.88391
4.85619
3.74028
2.44416
1.30187
0.238708
0.221365
0.196103
0.787521
0.958263
1.1689
1.31954
5.04532
6.09573
6.83692
7.48069
7.99216
8.37541
8.62809
8.743
8.71886
8.56091
8.28765
7.91746
7.47874
6.97056
6.3787
5.62955
4.82196
4.17181
3.73411
3.32174
2.70821
1.90316
1.07089
0.322824
0.227456
0.263366
0.404345
0.493588
0.568605
0.614233
4.63293
5.51248
6.22834
6.78212
7.1625
7.4054
7.52287
7.52545
7.4215
7.22775
6.96452
6.6494
6.30223
5.9231
5.48187
4.91532
4.30788
3.84288
3.54336
3.22603
2.68928
1.96375
1.17099
0.44713
0.266199
0.293909
0.350013
0.408974
0.484546
0.572333
4.37077
5.24953
6.04366
6.64905
7.03366
7.23364
7.29746
7.24874
7.10754
6.89697
6.63834
6.35063
6.0441
5.72382
5.34666
4.8482
4.30486
3.89979
3.63087
3.33356
2.82772
2.12151
1.32579
0.588317
0.324983
0.332047
0.36235
0.400224
0.464148
0.574565
4.10483
5.00132
5.88022
6.5474
6.96234
7.16876
7.21749
7.15198
7.00289
6.79591
6.5518
6.29693
6.03225
5.74858
5.40737
4.94425
4.43849
4.05944
3.79823
3.50321
3.00818
2.30929
1.49806
0.738732
0.41028
0.381438
0.39847
0.42234
0.484178
0.606311
3.79955
4.71305
5.66406
6.39027
6.84509
7.06783
7.12406
7.06977
6.93872
6.75624
6.55189
6.32634
6.09602
5.84599
5.52979
5.09075
4.61402
4.25673
3.99955
3.70098
3.20932
2.51182
1.68396
0.902938
0.518698
0.443171
0.450168
0.466698
0.525661
0.657126
3.42628
4.35577
5.35909
6.14454
6.6399
6.88987
6.97351
6.95551
6.86487
6.72722
6.56589
6.38134
6.18817
5.96806
5.67199
5.25451
4.80851
4.47543
4.22279
3.91756
3.4245
2.72698
1.88529
1.08333
0.647138
0.521084
0.512539
0.524008
0.58033
0.718129
2.95482
3.87329
4.92609
5.77814
6.32275
6.62304
6.75809
6.79549
6.76659
6.68904
6.58062
6.44378
6.28886
6.09697
5.81972
5.42691
5.01788
4.71352
4.46561
4.15033
3.65135
2.95317
2.10279
1.28211
0.795749
0.617418
0.584456
0.589725
0.643218
0.783476
2.46691
3.31976
4.37805
5.26776
5.89029
6.27105
6.48424
6.59691
6.64417
6.64022
6.59221
6.50754
6.39092
6.22686
5.96997
5.60893
5.24544
4.97412
4.7289
4.39911
3.88915
3.18865
2.33589
1.50108
0.965669
0.733432
0.66846
0.662093
0.711035
0.850372
2.01168
2.74491
3.7699
4.69146
5.37881
5.85123
6.16524
6.37168
6.50666
6.58173
6.60204
6.57168
6.49393
6.35793
6.12562
5.8066
5.49757
5.26178
5.01648
4.66497
4.13814
3.43288
2.58407
1.73918
1.15785
0.870779
0.767649
0.742213
0.783573
0.91853
1.62485
2.2126
3.15766
4.09468
4.84468
5.40058
5.82109
6.13285
6.36289
6.52182
6.61296
6.63969
6.60133
6.49441
6.29357
6.02926
5.78321
5.58149
5.32939
4.94926
4.3994
3.68641
2.8438
1.99527
1.37323
1.03165
0.88477
0.833414
0.862377
0.98926
1.32497
1.76939
2.59429
3.51873
4.32203
4.95907
5.47094
5.8945
6.22314
6.46956
6.63072
6.71682
6.71961
6.64441
6.48427
6.28822
6.11084
5.93862
5.6705
5.25413
4.67498
3.95142
3.11544
2.26836
1.61276
1.21855
1.02331
0.939454
0.9502
1.06507
1.11416
1.44268
2.12724
3.00095
3.8387
4.54889
5.1488
5.67122
6.09868
6.43052
6.66211
6.80935
6.85882
6.82025
6.71182
6.59682
6.49133
6.33896
6.04359
5.58271
4.96863
4.23204
3.40128
2.55873
1.87767
1.43395
1.18721
1.0649
1.05024
1.14879
1.0008
1.23334
1.78262
2.57596
3.41738
4.18686
4.86598
5.47432
5.99973
6.40585
6.71581
6.92838
7.03115
7.03889
6.99483
6.97272
6.93564
6.78977
6.4544
5.9404
5.28673
4.53463
3.70634
2.86971
2.17082
1.68073
1.38058
1.21462
1.16629
1.24285
0.964619
1.14501
1.56449
2.25097
3.07469
3.88644
4.6354
5.31583
5.92242
6.3993
6.80468
7.08929
7.25321
7.32238
7.35915
7.43788
7.45754
7.30189
6.91271
6.33724
5.64024
4.86898
4.03961
3.20984
2.49763
1.96304
1.60795
1.39304
1.30226
1.3493
1.03136
1.16662
1.47726
2.03311
2.80003
3.63594
4.44291
5.19154
5.87253
6.43728
6.94822
7.31277
7.5504
7.69918
7.83803
8.02017
8.07765
7.89339
7.43582
6.79129
6.04654
5.25055
4.41831
3.59741
2.86775
2.28708
1.8748
1.60583
1.4639
1.47691
1.20617
1.32033
1.51403
1.92672
2.60274
3.43739
4.29271
5.10516
5.85529
6.55307
7.17141
7.62765
7.95806
8.21092
8.47375
8.75663
8.82968
8.59466
8.05382
7.3331
6.53306
5.70878
4.87456
4.05285
3.29583
2.66244
2.1887
1.85999
1.65977
1.62701
1.49296
1.58346
1.69269
1.92021
2.48665
3.29379
4.18743
5.06077
5.90346
6.76169
7.50672
8.07499
8.52611
8.915
9.32467
9.69804
9.76371
9.45561
8.81773
8.01062
7.14797
6.30058
5.45424
4.60645
3.8031
3.10407
2.56099
2.1649
1.89792
1.80544
1.90093
1.94442
1.97036
2.0554
2.4504
3.20736
4.12961
5.06829
6.07845
7.1027
8.00239
8.71485
9.32627
9.89231
10.4732
10.9214
10.9572
10.557
9.80971
8.90368
7.9922
7.11496
6.21412
5.30158
4.41928
3.63554
3.00971
2.5348
2.18844
2.02106
2.45363
2.41742
2.359
2.30198
2.50589
3.17932
4.12499
5.20734
6.42455
7.63893
8.72974
9.63806
10.4646
11.2588
12.0394
12.5435
12.53
12.0306
11.1625
10.1614
9.23376
8.25372
7.23421
6.19871
5.19304
4.29583
3.56509
2.99318
2.54872
2.28646
3.16325
3.03788
2.87976
2.68693
2.71173
3.2658
4.27123
5.56346
6.99776
8.46135
9.80573
10.9842
12.1007
13.1857
14.2015
14.7435
14.6731
14.0944
13.1109
12.0884
11.0243
9.85123
8.62008
7.38626
6.20447
5.15003
4.27897
3.58055
3.0099
2.62452
4.09633
3.8685
3.5923
3.24626
3.08681
3.57035
4.67486
6.18019
7.92233
9.71326
11.4169
12.9708
14.4763
15.928
17.2276
17.7965
17.7008
17.1255
16.0539
14.9193
13.5642
12.078
10.5408
9.02238
7.58729
6.30968
5.24237
4.36959
3.62974
3.07741
5.36211
5.02182
4.61238
4.09143
3.7473
4.13945
5.39669
7.22341
9.39231
11.6577
13.8667
15.9347
17.9544
19.8635
21.5173
22.1278
22.125
21.5036
20.3237
18.8545
17.1225
15.2286
13.2799
11.3665
9.56969
7.96965
6.61852
5.49291
4.51128
3.72314
7.15892
6.71039
6.1649
5.45655
4.91718
5.23978
6.71123
8.9875
11.7677
14.722
17.625
20.3801
23.0556
25.5178
27.6393
28.3435
28.294
27.502
26.118
24.2857
22.1062
19.7184
17.2558
14.8295
12.5345
10.4711
8.70223
7.19669
5.85624
4.72315
9.85904
9.32598
8.66964
7.80074
7.07317
7.36465
9.16194
12.0598
15.6784
19.5768
23.3838
26.9875
30.4321
33.4993
36.1004
36.7523
36.537
35.4903
33.8316
31.6171
28.9737
26.0654
23.0301
19.9975
17.0753
14.3846
12.0119
9.94134
8.06345
6.40487
14.1318
13.5475
12.8532
11.9497
11.1566
11.5282
13.7787
17.4826
22.1121
27.1614
32.0198
36.5442
40.7658
44.3562
47.2718
47.5349
46.8941
45.3922
43.3215
40.7757
37.8429
34.5593
31.0769
27.5033
23.9389
20.5234
17.3766
14.5327
11.8958
9.42464
20.901
20.2927
19.6992
19.0485
18.6311
19.3418
22.1498
26.6747
32.2889
38.3939
44.2247
49.5051
54.2719
58.0523
60.7285
59.7493
57.7927
55.2771
52.6596
49.8143
46.8004
43.6305
40.3336
36.887
33.2685
29.5154
25.7187
21.9827
18.3284
14.8976
30.4445
29.9287
29.646
29.5526
30.1004
31.9027
35.336
40.3837
46.5173
53.0745
59.3558
64.8423
69.5538
72.7151
73.8462
70.1183
66.4651
62.7621
59.5146
56.4466
53.5243
50.7354
48.0337
45.2842
42.3489
39.1283
35.5943
31.8125
27.8452
23.9807
39.6513
39.6564
39.9838
40.5929
42.0761
45.1219
49.6345
55.0833
61.0448
67.153
73.0152
77.8505
81.536
82.7034
81.0082
74.3107
68.8337
63.8231
59.8766
56.5342
53.8314
51.6188
49.7735
48.1638
46.604
44.8853
42.8703
40.5221
37.8678
35.2151
39.9015
40.8186
41.9644
43.224
45.1152
48.4017
53.2703
59.0241
64.8043
70.2961
75.3427
79.1005
81.2673
80.4482
76.0817
67.4389
60.793
55.0189
50.5537
47.0574
44.4792
42.6492
41.451
40.7423
40.3905
40.2193
40.0888
39.9309
39.7152
39.642
11.1388
14.8848
16.9108
18.5476
19.9463
21.0773
21.92
22.4178
22.5065
22.1724
21.3994
20.2584
18.7558
16.96
14.8205
12.2659
9.65676
8.04766
7.70595
7.75119
6.5356
4.33001
2.04957
0.25649
0.220138
0.19986
0.938427
1.15285
1.38061
1.47596
6.679
7.75424
8.44396
9.03609
9.55678
9.97515
10.2675
10.4112
10.3934
10.2083
9.87713
9.41066
8.84569
8.15662
7.32164
6.26731
5.31355
4.92892
5.06928
5.02774
4.2555
3.0567
1.72162
0.501799
0.256344
0.321035
0.448876
0.531752
0.622286
0.679945
6.17699