/*--------------------------------*- C++ -*----------------------------------*\
| =========                 |                                                 |
| \\      /  F ield         | OpenFOAM: The Open Source CFD Toolbox           |
|  \\    /   O peration     | Version:  5.0                                   |
|   \\  /    A nd           | Web:      www.OpenFOAM.org                      |
|    \\/     M anipulation  |                                                 |
\*---------------------------------------------------------------------------*/
FoamFile
{
    version     2.0;
    format      ascii;
    class       volScalarField;
    location    "1000/air";
    object      k;
}
// * * * * * * * * * * * * * * * * * * * * * * * * * * * * * * * * * * * * * //

dimensions      [0 2 -2 0 0 0 0];

internalField   nonuniform List<scalar> 
243000
(
0.0523944
0.0646173
0.0702515
0.0737403
0.0753686
0.0754627
0.0743467
0.0722864
0.0694857
0.0661769
0.0625483
0.0589405
0.0556742
0.0531704
0.0516148
0.0508658
0.050192
0.0491113
0.0474816
0.0454145
0.0430728
0.0405946
0.0381006
0.0357604
0.0336209
0.0311628
0.0278002
0.023545
0.020917
0.0235677
0.0818703
0.0991659
0.106588
0.110821
0.112579
0.112578
0.111318
0.109075
0.106058
0.102511
0.0986794
0.0950198
0.0918238
0.0895972
0.0882932
0.0873343
0.0854468
0.0823481
0.0783027
0.073779
0.0691125
0.064475
0.0599684
0.0558875
0.0525275
0.0490971
0.0447055
0.0378064
0.0308372
0.0326509
0.0926657
0.114098
0.123709
0.129478
0.13218
0.1328
0.131952
0.130021
0.127254
0.12395
0.120372
0.11703
0.114201
0.112418
0.111474
0.110499
0.107903
0.103525
0.0979171
0.0917566
0.0855146
0.0794099
0.0735339
0.0681319
0.0634964
0.0591223
0.0542059
0.0474172
0.0395527
0.0353745
0.0893464
0.116452
0.130832
0.139127
0.143565
0.145571
0.14585
0.144904
0.143043
0.140606
0.137865
0.135371
0.133387
0.132432
0.132129
0.131368
0.128303
0.122919
0.115994
0.108411
0.100757
0.0933115
0.0861698
0.0795365
0.0736823
0.0682308
0.0625871
0.0556919
0.0475902
0.0412655
0.0795823
0.109681
0.128694
0.14089
0.148379
0.152457
0.15451
0.155114
0.154674
0.153588
0.152128
0.150865
0.150044
0.150151
0.150631
0.150181
0.146798
0.140624
0.132624
0.123844
0.114968
0.10634
0.0980662
0.0903234
0.0833623
0.0768633
0.0704068
0.0631928
0.0549177
0.0476166
0.0703857
0.0987983
0.120546
0.136584
0.147288
0.154441
0.158954
0.161604
0.163029
0.163683
0.163837
0.164084
0.16464
0.165955
0.167285
0.167176
0.163582
0.156791
0.147922
0.138148
0.128235
0.118579
0.109311
0.100584
0.0926307
0.0851885
0.0778926
0.0702211
0.0616873
0.0535813
0.0615509
0.0875926
0.110228
0.12799
0.142072
0.15234
0.159739
0.165076
0.168743
0.171459
0.173494
0.175465
0.177539
0.180133
0.18233
0.182567
0.178847
0.171578
0.162015
0.151423
0.140636
0.130099
0.119964
0.110369
0.101536
0.0932517
0.0851355
0.0769477
0.0680901
0.0593547
0.0567322
0.0756778
0.099615
0.118776
0.133902
0.147191
0.157626
0.16598
0.172298
0.177354
0.181479
0.18533
0.189013
0.192912
0.195963
0.196538
0.192757
0.185133
0.175019
0.163762
0.152245
0.140958
0.130071
0.119717
0.110108
0.101071
0.092174
0.0834606
0.0742569
0.0650468
0.05996
0.0659662
0.0884019
0.109252
0.125972
0.140143
0.153321
0.164686
0.174151
0.181705
0.188088
0.193929
0.199272
0.20447
0.208343
0.209244
0.205458
0.19758
0.187039
0.175245
0.163121
0.151199
0.139668
0.128657
0.118369
0.10866
0.099036
0.089805
0.0802543
0.0706678
0.0667931
0.0632683
0.077417
0.0990632
0.117822
0.133445
0.147559
0.161786
0.174373
0.184748
0.193546
0.201456
0.208483
0.214949
0.219599
0.220817
0.217071
0.209033
0.198167
0.185943
0.173321
0.160866
0.148789
0.13722
0.126342
0.116036
0.105799
0.0960303
0.0861314
0.076201
0.0751712
0.069525
0.0702673
0.088554
0.109166
0.126732
0.142199
0.157788
0.173384
0.186818
0.198026
0.208066
0.216776
0.224468
0.229837
0.231358
0.22769
0.219574
0.208484
0.195926
0.182902
0.170002
0.157467
0.145431
0.134046
0.123211
0.112454
0.10216
0.091923
0.0816503
0.0843605
0.0784366
0.0718296
0.0794871
0.100026
0.119752
0.136961
0.153573
0.171485
0.187982
0.201696
0.213873
0.224255
0.233119
0.239143
0.240953
0.237392
0.229267
0.218045
0.205246
0.191902
0.178637
0.165722
0.153299
0.141488
0.130194
0.118986
0.108199
0.0976295
0.0870196
0.0940866
0.088395
0.0802987
0.0755697
0.0911933
0.112416
0.131682
0.149679
0.168921
0.188407
0.20472
0.219002
0.230999
0.240966
0.247583
0.249672
0.24624
0.238161
0.226893
0.213936
0.200349
0.186792
0.173565
0.160825
0.148665
0.136986
0.125388
0.114147
0.10325
0.0923162
0.104307
0.0988124
0.0904968
0.0808054
0.0846763
0.104951
0.126282
0.14597
0.166083
0.188219
0.207225
0.22354
0.237076
0.248067
0.255219
0.257574
0.254287
0.246303
0.235059
0.222024
0.208269
0.19449
0.181019
0.168029
0.155591
0.143594
0.131666
0.120017
0.108804
0.0975672
0.115025
0.109533
0.10122
0.0900268
0.0825349
0.0980515
0.120784
0.142364
0.163639
0.187661
0.209251
0.227553
0.242532
0.254465
0.262094
0.264705
0.261577
0.253732
0.242578
0.229537
0.215691
0.201759
0.188114
0.174944
0.162292
0.150038
0.137834
0.125809
0.114293
0.102794
0.126241
0.120545
0.112115
0.100295
0.0870086
0.0929935
0.115367
0.138829
0.161471
0.186829
0.210888
0.231089
0.247399
0.260191
0.268244
0.2711
0.268149
0.260483
0.249472
0.2365
0.222639
0.208628
0.194878
0.181596
0.168791
0.156337
0.143903
0.13153
0.119754
0.108013
0.137952
0.131865
0.12314
0.110958
0.095912
0.0909498
0.110381
0.135376
0.159506
0.185789
0.212177
0.234181
0.251694
0.265261
0.27369
0.276787
0.274039
0.266586
0.255767
0.242926
0.229129
0.215122
0.201346
0.188014
0.175117
0.162511
0.149901
0.13722
0.125209
0.113238
0.150144
0.143501
0.134306
0.121711
0.105572
0.0928243
0.106334
0.132067
0.157704
0.184603
0.213132
0.236853
0.255419
0.269678
0.278444
0.281785
0.279269
0.272072
0.261488
0.248849
0.235183
0.221258
0.207533
0.194221
0.181297
0.168603
0.155867
0.142907
0.130681
0.118488
0.162803
0.155452
0.14563
0.132493
0.115549
0.0980863
0.103772
0.12901
0.156045
0.183429
0.213748
0.239027
0.258551
0.273426
0.282502
0.2861
0.283856
0.276962
0.266678
0.254303
0.240836
0.227063
0.213457
0.200236
0.187358
0.174644
0.161836
0.148618
0.136195
0.123799
0.175898
0.167704
0.15712
0.143326
0.125618
0.10566
0.10296
0.126328
0.154517
0.182445
0.213955
0.240658
0.261056
0.276481
0.285857
0.289736
0.287807
0.281288
0.271378
0.259326
0.246123
0.232569
0.219152
0.206089
0.193327
0.180673
0.167861
0.154432
0.141798
0.129203
0.189414
0.180249
0.168791
0.15423
0.13572
0.114117
0.104215
0.124157
0.153103
0.181564
0.213732
0.241681
0.26292
0.278806
0.288486
0.292684
0.291139
0.285071
0.27561
0.263953
0.251086
0.23782
0.224661
0.211823
0.19925
0.186738
0.174007
0.160526
0.147597
0.134774
0.20335
0.193099
0.180679
0.165243
0.145992
0.122992
0.10739
0.122633
0.151812
0.180755
0.213082
0.241902
0.263948
0.280327
0.290331
0.29491
0.293828
0.2883
0.279381
0.268209
0.255762
0.242869
0.230039
0.217491
0.205179
0.192899
0.180341
0.166916
0.153663
0.140565
0.217827
0.206339
0.192883
0.176546
0.156805
0.132065
0.111863
0.121834
0.150712
0.180077
0.211922
0.241259
0.263837
0.28079
0.291229
0.296279
0.29576
0.29089
0.282632
0.27207
0.260158
0.24774
0.23533
0.223153
0.211181
0.199218
0.186927
0.173646
0.160037
0.146604
0.23307
0.220197
0.205777
0.189106
0.167634
0.141048
0.117178
0.12179
0.149984
0.179643
0.210247
0.239568
0.262531
0.27993
0.290798
0.296404
0.296572
0.292545
0.285112
0.275331
0.264128
0.252342
0.240497
0.228816
0.217285
0.205725
0.193774
0.18071
0.166737
0.152921
0.248682
0.235272
0.22026
0.201808
0.178459
0.149961
0.123066
0.122714
0.149834
0.179615
0.20915
0.236809
0.259573
0.277086
0.288288
0.294467
0.295462
0.292424
0.28612
0.277386
0.267136
0.256213
0.245133
0.234134
0.223224
0.212206
0.20068
0.187874
0.173741
0.159557
0.263184
0.24938
0.233472
0.213962
0.189315
0.159183
0.129772
0.125225
0.150995
0.18088
0.2094
0.235448
0.256767
0.273222
0.284271
0.290759
0.292702
0.290885
0.285895
0.278517
0.269444
0.259371
0.248847
0.238384
0.228221
0.217904
0.206951
0.194533
0.18106
0.166725
0.275707
0.262927
0.247274
0.227447
0.202038
0.17076
0.139601
0.131701
0.156768
0.186887
0.214821
0.239588
0.259767
0.275472
0.286441
0.293185
0.295832
0.295058
0.291224
0.284967
0.276892
0.267608
0.257625
0.247384
0.237151
0.226777
0.21592
0.20406
0.190945
0.176207
0.295342
0.282655
0.2671
0.247527
0.222629
0.192216
0.16185
0.152463
0.176997
0.207136
0.235016
0.258824
0.278031
0.292964
0.303622
0.310189
0.313061
0.312833
0.309685
0.304123
0.296676
0.287886
0.278218
0.268026
0.257544
0.246732
0.235385
0.223096
0.20929
0.193276
0.336445
0.325737
0.313207
0.298021
0.27907
0.2563
0.234106
0.229103
0.250642
0.278135
0.304264
0.325435
0.342138
0.354751
0.363592
0.368617
0.370449
0.369616
0.366247
0.360682
0.353356
0.344694
0.335104
0.324809
0.313965
0.30219
0.289477
0.275733
0.260592
0.243027
0.501438
0.500334
0.498859
0.496068
0.490916
0.483761
0.478019
0.480389
0.487785
0.498469
0.508866
0.517542
0.524257
0.52865
0.531456
0.532549
0.532248
0.531252
0.529427
0.527092
0.524242
0.521188
0.51812
0.515059
0.511591
0.504474
0.494924
0.484489
0.474981
0.463134
0.0798962
0.0988865
0.109522
0.116348
0.120205
0.121712
0.121291
0.119308
0.116055
0.111935
0.107274
0.102547
0.0980354
0.0941275
0.090734
0.0872808
0.0826732
0.0767042
0.0696754
0.0620474
0.0541484
0.0461757
0.0384942
0.0327104
0.0285155
0.0263803
0.0246682
0.02308
0.0252688
0.0292689
0.140781
0.164844
0.176665
0.182169
0.183761
0.182792
0.18018
0.176426
0.171856
0.166789
0.161363
0.15594
0.150471
0.145078
0.13907
0.131269
0.120524
0.108375
0.0963546
0.0851672
0.0749407
0.0652423
0.0557255
0.0477267
0.0421298
0.0390752
0.0377815
0.038718
0.0434196
0.042895
0.17822
0.203058
0.21858
0.226609
0.229975
0.230414
0.229042
0.226412
0.222821
0.218534
0.21359
0.208316
0.202553
0.196393
0.188951
0.178631
0.163986
0.147363
0.131214
0.116315
0.102943
0.0904802
0.0782334
0.0673108
0.059578
0.0548447
0.0516382
0.0485547
0.0494109
0.0496511
0.19197
0.222146
0.241265
0.251802
0.257553
0.260371
0.261522
0.261434
0.260289
0.258156
0.25493
0.250865
0.24573
0.239602
0.231539
0.219647
0.202262
0.182457
0.163018
0.145064
0.12896
0.11407
0.0995261
0.0862032
0.0764072
0.0701868
0.0653525
0.0592641
0.0545785
0.0519782
0.181183
0.218778
0.245768
0.262246
0.271498
0.277531
0.282185
0.285741
0.288081
0.289038
0.288339
0.286166
0.282242
0.276679
0.268487
0.255569
0.236169
0.213954
0.191898
0.171449
0.153037
0.136089
0.119629
0.104321
0.092623
0.085004
0.0789501
0.0709615
0.0623952
0.0572216
0.151941
0.200283
0.235987
0.258912
0.273416
0.284709
0.293856
0.301994
0.308635
0.313409
0.315822
0.315982
0.313652
0.308991
0.300986
0.287402
0.266525
0.242454
0.218302
0.195784
0.175415
0.156705
0.138638
0.121703
0.108307
0.0992815
0.092247
0.0831157
0.0721247
0.0649426
0.119064
0.171971
0.214045
0.246247
0.267232
0.282998
0.298498
0.312101
0.323669
0.332775
0.338691
0.341542
0.341013
0.337462
0.329847
0.315852
0.293973
0.268477
0.242659
0.218417
0.196375
0.176138
0.156692
0.138412
0.123541
0.11311
0.105164
0.0952457
0.0827812
0.0737846
0.0922522
0.140132
0.187474
0.226528
0.254452
0.276192
0.296688
0.317593
0.334412
0.34822
0.357901
0.363627
0.365073
0.362729
0.355631
0.341428
0.318944
0.292406
0.265271
0.239605
0.216132
0.194567
0.173914
0.154504
0.138362
0.126581
0.117722
0.10713
0.0937452
0.0833042
0.0751107
0.109543
0.15952
0.204088
0.238012
0.265306
0.291377
0.318429
0.341774
0.360532
0.374145
0.382829
0.386359
0.385263
0.378753
0.364503
0.341773
0.314508
0.286354
0.259524
0.234839
0.212117
0.190416
0.170033
0.152798
0.139762
0.129972
0.118752
0.104693
0.0931572
0.0684307
0.0865072
0.131415
0.180244
0.219841
0.252691
0.283643
0.316471
0.346901
0.37028
0.387936
0.399607
0.40526
0.405424
0.399546
0.385444
0.362662
0.334991
0.306062
0.278296
0.252592
0.228868
0.206266
0.185056
0.166888
0.152715
0.141956
0.130189
0.115634
0.103111
0.0696474
0.077505
0.107362
0.155876
0.200806
0.23893
0.274605
0.312798
0.349661
0.377966
0.39966
0.414319
0.422067
0.423524
0.418287
0.404445
0.3818
0.353972
0.324512
0.296004
0.269451
0.244859
0.221503
0.199631
0.180687
0.165511
0.153801
0.141568
0.126688
0.113293
0.0792276
0.07915
0.0930788
0.133223
0.181475
0.224618
0.265241
0.307867
0.350609
0.384347
0.40959
0.427242
0.437054
0.439805
0.435216
0.421733
0.399364
0.371548
0.341812
0.312722
0.28546
0.260136
0.236175
0.213807
0.194246
0.178221
0.16565
0.15304
0.137987
0.123874
0.0925398
0.0900951
0.0919031
0.115763
0.162714
0.2102
0.255704
0.302651
0.350214
0.389404
0.418077
0.438601
0.45045
0.454487
0.450555
0.437516
0.415506
0.38783
0.358036
0.328517
0.300678
0.274758
0.250334
0.227624
0.207607
0.190908
0.177611
0.164737
0.149638
0.13495
0.109515
0.105671
0.102515
0.109438
0.146428
0.196244
0.246323
0.297485
0.349133
0.393268
0.425435
0.448587
0.462456
0.467776
0.464514
0.451996
0.430403
0.402975
0.37324
0.343468
0.315177
0.288796
0.264047
0.241139
0.220819
0.203628
0.189771
0.176767
0.161738
0.1466
0.129967
0.124718
0.118943
0.114544
0.135162
0.183544
0.237387
0.292544
0.347505
0.39625
0.431889
0.457468
0.473241
0.479878
0.477309
0.465377
0.44426
0.417148
0.387529
0.357638
0.329044
0.302332
0.277398
0.254422
0.233944
0.216438
0.202202
0.18922
0.174367
0.158876
0.153663
0.146909
0.138984
0.128814
0.131877
0.173237
0.22921
0.287981
0.345976
0.398622
0.437701
0.465451
0.482992
0.491005
0.489163
0.477885
0.457287
0.430529
0.401055
0.371106
0.342395
0.315468
0.290471
0.267551
0.24705
0.229395
0.214966
0.20217
0.187591
0.171822
0.180403
0.172027
0.162023
0.147861
0.138412
0.166504
0.222148
0.283943
0.344743
0.400569
0.442711
0.472663
0.491953
0.501397
0.500339
0.489785
0.469738
0.443336
0.414002
0.384057
0.355331
0.328327
0.303372
0.280615
0.260225
0.242567
0.228133
0.215691
0.20148
0.185484
0.209966
0.199885
0.187694
0.170042
0.152118
0.163894
0.216571
0.280553
0.343844
0.402179
0.447011
0.479288
0.500422
0.511346
0.51117
0.501416
0.481939
0.455875
0.426586
0.396841
0.368063
0.341077
0.316237
0.293738
0.273585
0.256054
0.241793
0.229866
0.216101
0.199903
0.242121
0.230313
0.215787
0.194813
0.170785
0.166222
0.212914
0.277909
0.343284
0.40346
0.450798
0.485611
0.508753
0.521283
0.522131
0.51325
0.494354
0.468563
0.439491
0.40977
0.380928
0.353967
0.329281
0.307106
0.287294
0.270007
0.256078
0.244802
0.231543
0.21515
0.276648
0.263166
0.246206
0.221826
0.19211
0.175715
0.211484
0.276068
0.343031
0.40446
0.454409
0.492117
0.517504
0.531836
0.533919
0.525997
0.507669
0.48232
0.453351
0.423476
0.39447
0.367437
0.342887
0.321037
0.301615
0.284657
0.271195
0.260643
0.247957
0.231342
0.31337
0.298361
0.278963
0.250991
0.215645
0.188788
0.21197
0.275045
0.343118
0.405907
0.458675
0.499671
0.527611
0.544046
0.547642
0.54081
0.523261
0.498248
0.469162
0.438973
0.409605
0.38229
0.357738
0.336086
0.316989
0.300389
0.287514
0.277671
0.265628
0.248721
0.352244
0.335986
0.314259
0.282642
0.241428
0.204703
0.214933
0.274915
0.344339
0.409392
0.465713
0.509848
0.54076
0.559739
0.565247
0.559797
0.54302
0.51825
0.488878
0.458081
0.427967
0.40006
0.375141
0.353332
0.334299
0.318034
0.305787
0.296616
0.285132
0.267683
0.393544
0.376505
0.352702
0.317705
0.269909
0.223709
0.221601
0.277041
0.348418
0.417724
0.478004
0.525574
0.560152
0.582326
0.59036
0.586669
0.570808
0.546152
0.516211
0.484375
0.45293
0.423725
0.39766
0.375007
0.355703
0.339741
0.327806
0.318885
0.307512
0.28891
0.43846
0.421301
0.395883
0.357769
0.302498
0.246519
0.233656
0.284734
0.359863
0.435317
0.500965
0.552835
0.592243
0.618554
0.630217
0.628941
0.61436
0.589906
0.559104
0.525542
0.492052
0.460609
0.432304
0.407713
0.386931
0.370027
0.357256
0.347267
0.334737
0.313681
0.491039
0.474325
0.447923
0.405024
0.343096
0.278027
0.254782
0.305293
0.385749
0.469219
0.543848
0.604524
0.650332
0.682433
0.699803
0.702249
0.690207
0.666561
0.634291
0.597891
0.560739
0.52509
0.492375
0.463456
0.438573
0.418053
0.401471
0.387603
0.371005
0.344838
0.562109
0.545016
0.515742
0.468885
0.402537
0.330995
0.298865
0.35004
0.440704
0.537808
0.625628
0.698635
0.755018
0.796164
0.821615
0.82906
0.820069
0.797346
0.763824
0.723658
0.680863
0.638624
0.598863
0.562366
0.529291
0.500275
0.475088
0.45235
0.425969
0.3896
0.66903
0.649709
0.619039
0.572108
0.507099
0.436942
0.403921
0.456807
0.560615
0.675243
0.778667
0.865159
0.93247
0.982559
1.01562
1.02793
1.02293
1.00235
0.968705
0.925574
0.877046
0.827204
0.778483
0.731746
0.687076
0.64482
0.604711
0.565163
0.52097
0.466346
0.843493
0.823332
0.794237
0.753247
0.700561
0.649551
0.631545
0.687398
0.797083
0.921232
1.0315
1.12295
1.19364
1.24573
1.27978
1.29341
1.29229
1.27581
1.24569
1.20457
1.15583
1.1033
1.04965
0.995432
0.940284
0.883956
0.826107
0.765368
0.697429
0.618768
1.047
1.03475
1.02116
1.00071
0.976928
0.962901
0.974538
1.03365
1.12909
1.2302
1.32023
1.39459
1.45134
1.49127
1.51115
1.51464
1.509
1.49159
1.46388
1.42783
1.38578
1.33969
1.29165
1.24265
1.19261
1.13925
1.08236
1.02008
0.948949
0.87058
1.1101
1.11356
1.1223
1.12358
1.11776
1.11918
1.14819
1.20905
1.27382
1.32931
1.37897
1.42295
1.45631
1.47604
1.47398
1.45775
1.43947
1.4133
1.38208
1.34798
1.31324
1.27895
1.24631
1.21642
1.18963
1.16448
1.14037
1.11781
1.09238
1.06503
0.103135
0.128249
0.141283
0.150468
0.156244
0.159263
0.15997
0.158693
0.155677
0.151293
0.145817
0.139737
0.133231
0.126639
0.11973
0.11172
0.101648
0.0902783
0.0786482
0.0673665
0.0560105
0.0441273
0.0323484
0.0298039
0.0283473
0.0257292
0.024285
0.0256452
0.0299582
0.034105
0.167855
0.209051
0.231982
0.244218
0.249914
0.251498
0.250205
0.24667
0.241213
0.234188
0.225733
0.216272
0.205631
0.193889
0.180252
0.163788
0.145091
0.128399
0.114953
0.103856
0.0922459
0.0778706
0.0596612
0.0458829
0.0414408
0.0382394
0.0359485
0.0382558
0.0467342
0.0508387
0.207454
0.258654
0.291332
0.310325
0.320006
0.323701
0.323352
0.320068
0.31437
0.306648
0.297015
0.285854
0.272937
0.258282
0.240956
0.219601
0.195173
0.173491
0.156151
0.141973
0.127478
0.109574
0.0864014
0.0658384
0.0574974
0.0528431
0.0477298
0.0460562
0.0529598
0.0617873
0.230346
0.290589
0.328899
0.352911
0.3662
0.372425
0.374082
0.372398
0.368027
0.361244
0.352068
0.34078
0.327115
0.31107
0.291663
0.267178
0.238837
0.213376
0.192657
0.175526
0.158362
0.137732
0.111131
0.085774
0.0735551
0.0673382
0.0601971
0.0544019
0.0566793
0.0660919
0.241951
0.303221
0.349932
0.378056
0.395137
0.404509
0.409209
0.410372
0.408542
0.403872
0.39625
0.385849
0.372382
0.355851
0.335225
0.308556
0.277439
0.249058
0.225511
0.205762
0.186276
0.163509
0.134537
0.105754
0.0898195
0.0818854
0.0734296
0.0646418
0.0628248
0.0719301
0.235402
0.297832
0.348749
0.385747
0.409665
0.423176
0.432221
0.437585
0.439455
0.437849
0.432572
0.423767
0.411154
0.394716
0.373396
0.345143
0.312141
0.281444
0.255536
0.2335
0.211989
0.187503
0.156881
0.125683
0.106359
0.0964892
0.08706
0.0764832
0.071409
0.0795157
0.212328
0.276802
0.334961
0.378544
0.40859
0.430362
0.445421
0.456284
0.462944
0.465266
0.462921
0.456207
0.444873
0.428952
0.407298
0.377963
0.343716
0.311233
0.28337
0.25933
0.236028
0.210112
0.178349
0.145499
0.123211
0.111192
0.100852
0.0892515
0.0818412
0.0882848
0.180738
0.245284
0.309434
0.360618
0.399071
0.427019
0.450541
0.468218
0.480514
0.48752
0.488602
0.484283
0.47452
0.459432
0.437701
0.407741
0.372761
0.338964
0.309471
0.283665
0.258752
0.231616
0.199076
0.165157
0.140387
0.126123
0.114749
0.102479
0.0933172
0.0978967
0.14915
0.208089
0.276684
0.335434
0.38132
0.417568
0.448028
0.474928
0.493345
0.505561
0.510577
0.508832
0.500812
0.486788
0.46521
0.435057
0.399749
0.365069
0.334208
0.306815
0.280428
0.252222
0.21918
0.18463
0.157888
0.141436
0.128853
0.115985
0.105445
0.108109
0.122957
0.170753
0.23984
0.305458
0.359137
0.402943
0.44154
0.476369
0.502328
0.52022
0.529482
0.530511
0.524326
0.511522
0.490347
0.460376
0.425075
0.389913
0.357873
0.329029
0.301266
0.27211
0.238772
0.203927
0.175702
0.157242
0.143356
0.129801
0.118126
0.118931
0.104449
0.140166
0.20297
0.273122
0.334365
0.386013
0.431969
0.474636
0.50893
0.532127
0.545821
0.549879
0.545555
0.534089
0.513574
0.484136
0.449142
0.413766
0.380714
0.350515
0.321458
0.291434
0.257952
0.223098
0.193837
0.173623
0.158439
0.1441
0.131469
0.130233
0.0951382
0.118853
0.170891
0.241062
0.308695
0.367805
0.421269
0.471215
0.513078
0.541694
0.560083
0.567346
0.564948
0.554918
0.535338
0.506756
0.47231
0.436905
0.402955
0.371471
0.341175
0.31035
0.276823
0.242201
0.212302
0.190649
0.174261
0.159087
0.145591
0.142213
0.0929685
0.108747
0.14705
0.211716
0.283135
0.349419
0.410224
0.466544
0.515455
0.549666
0.572665
0.583303
0.582938
0.574447
0.556086
0.528656
0.494933
0.459601
0.424832
0.392091
0.360599
0.329025
0.295522
0.261312
0.23113
0.208378
0.190945
0.174941
0.160588
0.155114
0.0995849
0.108296
0.13551
0.188721
0.259597
0.331794
0.39943
0.461761
0.516784
0.55681
0.583876
0.598094
0.599999
0.593136
0.57629
0.550275
0.517424
0.482145
0.446607
0.412595
0.379931
0.34765
0.314218
0.280548
0.250373
0.226869
0.208592
0.191802
0.176589
0.169072
0.114254
0.120786
0.135346
0.174706
0.239951
0.315752
0.389436
0.457387
0.51761
0.563092
0.594152
0.612099
0.616597
0.611494
0.596457
0.572085
0.540178
0.504886
0.468558
0.433248
0.39942
0.366456
0.333129
0.300069
0.270121
0.246206
0.227295
0.209783
0.193697
0.18417
0.13683
0.142223
0.149623
0.171135
0.226092
0.302019
0.380626
0.453659
0.518079
0.568697
0.603931
0.625732
0.633221
0.630092
0.617156
0.594628
0.563664
0.52826
0.491051
0.4544
0.419388
0.385748
0.352532
0.320108
0.290526
0.26651
0.247144
0.228977
0.211979
0.200471
0.166658
0.169402
0.171523
0.178953
0.219084
0.291329
0.373248
0.450708
0.518539
0.574049
0.613702
0.63946
0.650442
0.649635
0.63906
0.618554
0.588494
0.552829
0.514596
0.47654
0.440295
0.405951
0.372814
0.340976
0.311857
0.287971
0.268264
0.249475
0.23149
0.217948
0.202243
0.201024
0.198658
0.196363
0.218822
0.284268
0.367483
0.448594
0.519697
0.579572
0.623977
0.653977
0.668941
0.671068
0.662998
0.644702
0.615488
0.579385
0.539953
0.500402
0.462842
0.427721
0.394542
0.363177
0.33457
0.310911
0.290846
0.271388
0.252282
0.236519
0.241512
0.236352
0.229268
0.220047
0.226952
0.281134
0.36342
0.447331
0.521763
0.585828
0.635513
0.670204
0.689666
0.695526
0.690148
0.674238
0.645822
0.60912
0.568285
0.527141
0.488173
0.4521
0.418633
0.387558
0.359516
0.335869
0.315213
0.294894
0.274423
0.25618
0.284791
0.275217
0.263164
0.247554
0.242145
0.281434
0.361057
0.446855
0.525037
0.593886
0.649486
0.689492
0.714059
0.724507
0.722199
0.708887
0.681272
0.643881
0.601505
0.558668
0.518137
0.4808
0.446719
0.415681
0.387865
0.363697
0.341917
0.320329
0.298107
0.277252
0.332103
0.317733
0.300312
0.27772
0.26164
0.286607
0.360308
0.447545
0.530633
0.606064
0.667769
0.71393
0.744325
0.760247
0.761751
0.751328
0.724621
0.68658
0.642802
0.598194
0.555846
0.516877
0.481873
0.45014
0.421359
0.395698
0.371881
0.348333
0.323746
0.299673
0.383836
0.364499
0.341382
0.311687
0.286135
0.29604
0.362035
0.451321
0.541123
0.624847
0.693422
0.746894
0.784018
0.80635
0.812938
0.805831
0.780323
0.742179
0.697397
0.651033
0.606917
0.565817
0.528296
0.494069
0.462618
0.433871
0.40672
0.380148
0.352218
0.324048
0.441068
0.416953
0.388159
0.351379
0.316442
0.31202
0.369982
0.462292
0.562412
0.654239
0.731846
0.793999
0.839049
0.868977
0.882295
0.879219
0.85593
0.818598
0.773959
0.725948
0.678511
0.633268
0.591096
0.552048
0.51551
0.481404
0.44933
0.41814
0.385271
0.351627
0.50656
0.478405
0.444434
0.400817
0.355652
0.338167
0.392306
0.489337
0.59835
0.701711
0.791677
0.864642
0.919249
0.958025
0.980232
0.982256
0.962897
0.927433
0.881968
0.830567
0.777889
0.726236
0.676897
0.630251
0.586066
0.544404
0.505111
0.466987
0.426688
0.385268
0.586954
0.556449
0.51868
0.469185
0.414293
0.385427
0.434456
0.53841
0.66068
0.780111
0.884805
0.971011
1.03814
1.08753
1.11931
1.12598
1.10936
1.07475
1.02785
0.972699
0.914086
0.854836
0.796555
0.740092
0.685655
0.633652
0.584061
0.535634
0.484631
0.431587
0.695557
0.66523
0.626126
0.573221
0.512435
0.47621
0.51886
0.631003
0.770198
0.907663
1.02825
1.12827
1.20731
1.26568
1.30513
1.31467
1.29975
1.26581
1.21801
1.15993
1.09624
1.03008
0.963142
0.896483
0.830504
0.765924
0.703005
0.640628
0.574653
0.50481
0.853262
0.825425
0.788804
0.738961
0.680682
0.646133
0.685645
0.802192
0.952419
1.10433
1.2364
1.3454
1.43117
1.49315
1.53374
1.54106
1.5248
1.49029
1.44227
1.38368
1.31851
1.25005
1.1797
1.10783
1.03433
0.959566
0.88366
0.805858
0.722139
0.632023
1.07215
1.04776
1.01825
0.981354
0.940554
0.920667
0.962983
1.07369
1.21891
1.36762
1.49685
1.60211
1.68332
1.73828
1.76627
1.75908
1.73305
1.69245
1.6422
1.58534
1.5249
1.46317
1.40095
1.33742
1.27124
1.20111
1.12575
1.04378
0.951419
0.851025
1.2782
1.26454
1.25027
1.23153
1.21559
1.22388
1.27678
1.37423
1.49499
1.61448
1.71938
1.8032
1.86391
1.89614
1.89306
1.85514
1.80892
1.75406
1.69793
1.64186
1.58815
1.53767
1.49123
1.4484
1.40719
1.36442
1.31722
1.26282
1.19783
1.12474
1.29027
1.29595
1.30182
1.30044
1.29934
1.31708
1.37199
1.45858
1.55124
1.63471
1.70845
1.76623
1.80203
1.80898
1.77634
1.71561
1.65451
1.58873
1.5267
1.47049
1.42262
1.38305
1.35194
1.32884
1.31264
1.30057
1.29022
1.27959
1.26518
1.24811
0.130467
0.158448
0.171099
0.180459
0.186795
0.190565
0.19206
0.191373
0.188558
0.183876
0.177485
0.16987
0.161111
0.151528
0.140726
0.12775
0.112355
0.0975918
0.0856784
0.0762271
0.0649323
0.0496933
0.0328007
0.0276961
0.0272601
0.0258136
0.0257398
0.0300762
0.0351891
0.0391219
0.206778
0.251642
0.275681
0.290423
0.299173
0.303885
0.305156
0.302931
0.297364
0.288815
0.277451
0.263849
0.247787
0.229452
0.207902
0.183271
0.159699
0.145217
0.138614
0.133994
0.121574
0.0969985
0.0625785
0.0376924
0.0363905
0.0347831
0.0356872
0.0426986
0.0539987
0.0621644
0.250282
0.305841
0.344206
0.370011
0.386127
0.395204
0.398434
0.396197
0.389397
0.378691
0.364426
0.347211
0.326873
0.303536
0.276109
0.244561
0.214594
0.19635
0.187629
0.18099
0.16531
0.134896
0.0907441
0.0525612
0.0472839
0.045843
0.0456506
0.0508739
0.0626988
0.0757633
0.272068
0.338824
0.388158
0.423981
0.447138
0.460579
0.46622
0.464887
0.458195
0.446963
0.431629
0.412704
0.3901
0.363882
0.332868
0.296838
0.262483
0.24091
0.229424
0.220107
0.201607
0.167484
0.117283
0.0704715
0.0594476
0.0574167
0.055917
0.0585668
0.0687077
0.0842697
0.281559
0.353178
0.415996
0.460177
0.489872
0.507808
0.516472
0.517119
0.511706
0.501206
0.486059
0.466668
0.442996
0.415082
0.381604
0.342399
0.30502
0.2807
0.266559
0.254597
0.233737
0.197197
0.143181
0.0905046
0.0733782
0.0697278
0.0671456
0.0677585
0.0761785
0.0932244
0.279802
0.352135
0.424179
0.48144
0.517066
0.540144
0.552807
0.556848
0.553897
0.545259
0.531309
0.512392
0.48851
0.459691
0.42437
0.382937
0.343571
0.317066
0.300549
0.286125
0.263253
0.225135
0.16886
0.112214
0.0891463
0.0829142
0.0793819
0.0786347
0.0857137
0.10331
0.27038
0.342783
0.418877
0.482288
0.529558
0.559515
0.577452
0.58643
0.587206
0.58143
0.56954
0.551805
0.528319
0.499182
0.46253
0.419668
0.379167
0.351007
0.332395
0.315683
0.291038
0.251882
0.194521
0.135267
0.106613
0.0972176
0.0924891
0.0906648
0.0967393
0.114451
0.250768
0.322365
0.402734
0.472619
0.526116
0.565782
0.592117
0.607366
0.61338
0.611337
0.602173
0.586173
0.563556
0.534548
0.497081
0.453535
0.412622
0.3833
0.362801
0.34392
0.317637
0.277787
0.220225
0.159443
0.125714
0.112725
0.106435
0.103509
0.108692
0.126197
0.226375
0.294598
0.377569
0.452855
0.513975
0.5614
0.597993
0.62125
0.633587
0.636233
0.630289
0.61645
0.595071
0.566576
0.528833
0.485333
0.444652
0.414564
0.392305
0.371303
0.343427
0.303069
0.245964
0.184582
0.146418
0.129524
0.121305
0.117019
0.121266
0.138239
0.20015
0.262419
0.346173
0.426744
0.494975
0.550782
0.595797
0.629692
0.648863
0.657113
0.654777
0.643412
0.623584
0.595956
0.558519
0.515785
0.475876
0.445343
0.42143
0.398214
0.368703
0.327919
0.271735
0.210551
0.168683
0.147751
0.137151
0.13127
0.134372
0.150463
0.17514
0.229364
0.311332
0.39638
0.471827
0.535798
0.589801
0.633246
0.660088
0.674672
0.676433
0.667747
0.649756
0.623358
0.586859
0.545586
0.506939
0.476106
0.450501
0.424978
0.393741
0.352532
0.297572
0.237238
0.19247
0.167558
0.154135
0.146387
0.148056
0.162901
0.153718
0.198818
0.276161
0.364048
0.446364
0.518586
0.58092
0.632762
0.668495
0.689536
0.695995
0.690104
0.674253
0.649473
0.614599
0.575433
0.538368
0.507308
0.479889
0.451917
0.41882
0.37715
0.32354
0.264539
0.21774
0.189079
0.172471
0.162547
0.162435
0.175709
0.13741
0.173839
0.244047
0.332167
0.420268
0.50047
0.571093
0.63092
0.675121
0.702315
0.714022
0.711162
0.697774
0.675051
0.642527
0.60605
0.570751
0.539391
0.509978
0.479366
0.444272
0.40208
0.349797
0.29243
0.244455
0.212391
0.192379
0.180023
0.177607
0.189062
0.128126
0.157208
0.218372
0.30328
0.395189
0.482606
0.561114
0.628126
0.68002
0.713605
0.731068
0.731663
0.721104
0.700916
0.671492
0.638196
0.604695
0.572846
0.541175
0.507718
0.470505
0.427698
0.376626
0.321048
0.272616
0.237528
0.214036
0.198909
0.19386
0.203078
0.126436
0.150732
0.201765
0.279903
0.372721
0.466007
0.551665
0.625318
0.684172
0.724196
0.747678
0.752468
0.745124
0.728013
0.702427
0.672694
0.640858
0.608217
0.573968
0.537471
0.498049
0.454494
0.404483
0.350737
0.30229
0.264524
0.237572
0.21936
0.211299
0.218012
0.137858
0.156217
0.195786
0.264043
0.354267
0.45152
0.543332
0.623107
0.688299
0.734852
0.764592
0.774369
0.770844
0.757449
0.736385
0.710476
0.680023
0.646171
0.608998
0.569298
0.527579
0.483162
0.434083
0.382218
0.333687
0.293435
0.263079
0.241539
0.230069
0.234269
0.161237
0.175347
0.201594
0.256609
0.340818
0.439694
0.536515
0.621742
0.692927
0.746392
0.782636
0.798248
0.799475
0.790567
0.77458
0.752676
0.723161
0.68757
0.647137
0.604128
0.560021
0.514758
0.46662
0.416093
0.367138
0.324371
0.290653
0.265606
0.250309
0.251822
0.194956
0.20446
0.220565
0.25704
0.332877
0.430851
0.53141
0.621301
0.698389
0.759661
0.802941
0.825133
0.832503
0.828985
0.818477
0.800531
0.771425
0.733598
0.68966
0.643252
0.596804
0.551103
0.503453
0.453123
0.403073
0.357563
0.320441
0.291739
0.272322
0.270488
0.236757
0.240001
0.245866
0.268093
0.330339
0.42516
0.528102
0.622513
0.705937
0.775867
0.826936
0.856596
0.871435
0.874631
0.869984
0.855642
0.826341
0.785964
0.738406
0.688602
0.640768