/*--------------------------------*- C++ -*----------------------------------*\
| =========                 |                                                 |
| \\      /  F ield         | OpenFOAM: The Open Source CFD Toolbox           |
|  \\    /   O peration     | Version:  5.0                                   |
|   \\  /    A nd           | Web:      www.OpenFOAM.org                      |
|    \\/     M anipulation  |                                                 |
\*---------------------------------------------------------------------------*/
FoamFile
{
    version     2.0;
    format      ascii;
    class       volScalarField;
    location    "1000/air";
    object      nut;
}
// * * * * * * * * * * * * * * * * * * * * * * * * * * * * * * * * * * * * * //

dimensions      [0 2 -1 0 0 0 0];

internalField   nonuniform List<scalar> 
243000
(
0.000120657
0.000128972
0.000129567
0.000128049
0.000125059
0.000121101
0.000116568
0.000111733
0.000106772
0.000101865
9.71296e-05
9.27919e-05
8.90779e-05
8.63173e-05
8.46658e-05
8.40337e-05
8.38231e-05
8.36065e-05
8.32218e-05
8.27001e-05
8.21208e-05
8.15525e-05
8.10616e-05
8.07867e-05
8.07804e-05
8.03829e-05
7.86105e-05
7.33284e-05
6.88704e-05
8.09916e-05
0.000534905
0.000588557
0.000610118
0.000622056
0.000626905
0.000626828
0.000623237
0.000616861
0.000608214
0.000597907
0.000586576
0.000575528
0.000565685
0.000558699
0.00055458
0.000551639
0.000545814
0.000535991
0.000522781
0.000507519
0.000491246
0.000474493
0.000457597
0.000441694
0.000428104
0.000413867
0.000394877
0.000364168
0.000326158
0.000337912
0.000568868
0.000631193
0.000657182
0.000672294
0.000679191
0.000680672
0.000678385
0.000673297
0.000666009
0.000657236
0.000647626
0.000638512
0.000630692
0.000625709
0.000623103
0.000620534
0.000613446
0.000601092
0.000584745
0.000566144
0.000546602
0.000526754
0.000506883
0.000487849
0.000470846
0.00045427
0.000434917
0.00040668
0.00037122
0.000351265
0.000558252
0.000637322
0.000675572
0.00069672
0.000707658
0.000712465
0.000713009
0.000710566
0.000705888
0.000699777
0.000692876
0.000686543
0.000681471
0.000679039
0.000678353
0.000676628
0.000668993
0.000655068
0.000636539
0.000615493
0.000593439
0.000571125
0.000548833
0.000527229
0.000507341
0.000488124
0.000467435
0.000440854
0.000407469
0.00037948
0.000526695
0.000618101
0.000669663
0.000700725
0.000719098
0.000728837
0.000733601
0.000734901
0.000733764
0.000731128
0.000727624
0.000724595
0.000722646
0.000722972
0.000724289
0.000723493
0.000715649
0.00070073
0.000680721
0.000657933
0.000634001
0.000609786
0.000585589
0.000561943
0.000539748
0.000518201
0.000495877
0.000469725
0.000437868
0.000407906
0.000495139
0.000586358
0.000647627
0.000689508
0.000716084
0.000733143
0.000743743
0.000749795
0.000753023
0.000754513
0.00075489
0.000755511
0.000756874
0.000760023
0.000763287
0.000763379
0.000755511
0.000739979
0.000718975
0.000694962
0.000669655
0.000643997
0.000618326
0.000593081
0.000569052
0.000545644
0.000521668
0.000495264
0.000464193
0.000432677
0.000463048
0.000551661
0.000618935
0.000666871
0.000702732
0.000727714
0.000745042
0.000757425
0.000765766
0.000771945
0.000776602
0.000781125
0.00078588
0.000791799
0.000796898
0.0007978
0.000790036
0.000774144
0.000752501
0.000727646
0.000701348
0.000674612
0.000647814
0.000621325
0.000595856
0.000570968
0.000545468
0.000518534
0.000487791
0.000455464
0.000445352
0.000512375
0.000587938
0.000642074
0.000681658
0.000714736
0.000739632
0.000758946
0.000773397
0.000784803
0.000794058
0.000802644
0.000810811
0.000819397
0.000826194
0.000827827
0.000820244
0.000804198
0.00078217
0.000756764
0.000729768
0.000702252
0.000674601
0.000647158
0.000620567
0.0005945
0.000567644
0.000540112
0.000509485
0.000476884
0.000458861
0.000478813
0.000553303
0.000615278
0.000660778
0.000697046
0.000728879
0.000755455
0.000777155
0.000794058
0.000808174
0.000820929
0.000832477
0.000843599
0.000851945
0.000854235
0.000846901
0.000830849
0.000808633
0.000782891
0.00075543
0.000727356
0.000699089
0.000670938
0.000643488
0.000616485
0.00058847
0.000560337
0.00052973
0.000497141
0.000484647
0.00047096
0.000517515
0.000585217
0.00063853
0.000679733
0.000714482
0.000748213
0.000777106
0.000800367
0.000819609
0.000836601
0.000851472
0.000864978
0.000874719
0.000877612
0.000870573
0.000854647
0.00083239
0.000806477
0.00077873
0.000750287
0.000721594
0.000692953
0.000664864
0.000637128
0.000608361
0.000579523
0.000548852
0.000516316
0.00051423
0.000494694
0.000493869
0.000552729
0.000613967
0.000661891
0.000701081
0.00073839
0.000774437
0.000804508
0.000828837
0.000850124
0.000868231
0.000883969
0.000894951
0.000898392
0.000891682
0.000875988
0.000853831
0.000827885
0.0008
0.000771331
0.000742374
0.000713424
0.000684883
0.000656584
0.000627273
0.0005978
0.000567059
0.000534526
0.000544734
0.000525623
0.000502747
0.000524134
0.000587011
0.000642783
0.000687685
0.000728268
0.000769715
0.00080668
0.000836298
0.000861827
0.000883087
0.000900906
0.000912968
0.000916911
0.000910551
0.000895173
0.000873237
0.000847385
0.000819478
0.000790707
0.000761611
0.0007325
0.000703678
0.000674978
0.000645281
0.000615264
0.000584449
0.000551879
0.000575232
0.000557965
0.000532049
0.000513319
0.000560192
0.000622134
0.000673853
0.00071871
0.000763491
0.000807223
0.000842394
0.000872048
0.00089629
0.000916014
0.000929026
0.000933436
0.000927437
0.000912429
0.000890822
0.000865171
0.000837347
0.000808578
0.00077945
0.000750292
0.000721339
0.000692398
0.000662454
0.000631991
0.000601078
0.000568468
0.000605624
0.000589835
0.000564935
0.000533492
0.000540728
0.000600564
0.000659362
0.000709421
0.000756896
0.000806516
0.000847368
0.000881002
0.00090804
0.000929492
0.000943333
0.000948175
0.000942541
0.00092795
0.000906755
0.000881406
0.000853763
0.000825094
0.000796031
0.000766935
0.00073798
0.000708935
0.000678871
0.000648072
0.000617064
0.000584439
0.000635935
0.000620914
0.000597371
0.000563735
0.00053611
0.00058034
0.000644294
0.000700234
0.000751144
0.00080504
0.000851366
0.00088886
0.00091848
0.000941489
0.000956049
0.000961294
0.000956024
0.000941892
0.000921182
0.000896225
0.000868865
0.00084039
0.000811498
0.000782574
0.000753727
0.000724697
0.00069462
0.000663555
0.000632459
0.000599903
0.000666183
0.000651297
0.00062857
0.000595128
0.000553787
0.000565957
0.000629208
0.000691101
0.000746012
0.000803003
0.000854584
0.000895745
0.000927712
0.000952115
0.000967295
0.00097292
0.000968024
0.000954386
0.000934215
0.000909743
0.000882768
0.00085459
0.000825972
0.000797329
0.000768691
0.000739776
0.00070977
0.000678492
0.000647408
0.000614946
0.000696371
0.000681126
0.000658638
0.000625883
0.000582269
0.000561248
0.000615233
0.000682077
0.000741325
0.00080054
0.000857105
0.000901744
0.000935798
0.000961438
0.000977157
0.000983152
0.000978654
0.000965545
0.000945958
0.000922042
0.000895558
0.0008678
0.000839576
0.000811305
0.000782977
0.00075426
0.000724426
0.000693027
0.000661998
0.000629651
0.000726471
0.000710492
0.000687758
0.000655362
0.000611025
0.000569852
0.000604106
0.000673365
0.000736993
0.000797808
0.000858965
0.000906898
0.000942771
0.000969497
0.000985693
0.000992062
0.000988002
0.000975466
0.000956503
0.000933231
0.000907322
0.000880096
0.00085238
0.000824592
0.000796681
0.000768278
0.00073871
0.000707248
0.000676311
0.000644084
0.000756466
0.000739447
0.000716086
0.000683634
0.000639205
0.000587653
0.000597573
0.000665301
0.000732977
0.000795376
0.000860166
0.000911084
0.000948605
0.000976293
0.000992931
0.000999695
0.000996127
0.000984221
0.000965964
0.00094341
0.000918165
0.000891567
0.000864461
0.000837263
0.000809889
0.000781926
0.000752726
0.000721247
0.000690432
0.000658357
0.000786292
0.000768005
0.000743737
0.000710908
0.000666377
0.00061113
0.000596413
0.000658261
0.000729264
0.000793344
0.000860567
0.000914226
0.000953258
0.000981805
0.00099888
0.00100608
0.00100307
0.000991899
0.000974447
0.000952681
0.000928186
0.000902306
0.00087591
0.000849405
0.000822683
0.000795303
0.000766608
0.000735306
0.000704514
0.000672575
0.000815948
0.000796192
0.000770814
0.000737361
0.000692531
0.000635588
0.000601997
0.000652706
0.000725827
0.000791542
0.00086012
0.000916206
0.000956716
0.000985984
0.00100352
0.00101123
0.00100889
0.000998557
0.000982016
0.000961135
0.000937485
0.000912423
0.000886835
0.000861125
0.000835175
0.00080853
0.000780504
0.000749719
0.000718814
0.000686952
0.000845435
0.000824072
0.000797456
0.000763166
0.000718114
0.000660018
0.000612666
0.000649035
0.000722712
0.000789894
0.000858821
0.000916666
0.00095864
0.000988719
0.00100677
0.0010151
0.00101354
0.00100419
0.000988699
0.000968834
0.000946151
0.000922034
0.000897363
0.000872548
0.000847487
0.000821734
0.000794563
0.000764501
0.000733458
0.000701571
0.000875072
0.000851886
0.000823949
0.000788801
0.000744261
0.000684031
0.000626685
0.000647466
0.000720089
0.000788525
0.000856504
0.000915472
0.000958467
0.000989568
0.00100835
0.00101746
0.00101687
0.00100868
0.000994409
0.000975749
0.000954214
0.000931198
0.00090759
0.0008838
0.00085976
0.000835053
0.000808911
0.000779749
0.000748517
0.000716493
0.000905312
0.000880105
0.000851084
0.000816369
0.000769523
0.00070694
0.000642472
0.000647991
0.000718401
0.000787693
0.000853177
0.000912281
0.000956102
0.000988067
0.00100761
0.00101767
0.00101824
0.00101151
0.00099872
0.000981532
0.000961416
0.000939758
0.000917455
0.0008949
0.000872058
0.000848546
0.000823562
0.000795434
0.000764024
0.000731778
0.000935097
0.000909869
0.000880541
0.000843355
0.000793992
0.000728979
0.000659295
0.000651198
0.000718141
0.000787758
0.000851226
0.000907062
0.000950723
0.000983047
0.00100325
0.00101432
0.0010163
0.00101125
0.00100042
0.000985126
0.000966812
0.000946876
0.000926198
0.000905192
0.000883857
0.000861779
0.000838095
0.000811047
0.000779914
0.000747502
0.000961879
0.000936479
0.000906444
0.000868342
0.000817789
0.000751128
0.000677505
0.000658884
0.000721137
0.000790746
0.000852067
0.000904686
0.000945745
0.000976286
0.000996318
0.00100796
0.00101156
0.00100858
0.00100001
0.000987092
0.00097093
0.000952636
0.000933125
0.000913321
0.000893665
0.000873262
0.000851098
0.000825318
0.000796186
0.000764134
0.000984176
0.000961354
0.000932713
0.000895217
0.000844802
0.000777997
0.000703081
0.000676585
0.000735281
0.000804158
0.000863431
0.000912943
0.000951489
0.000980462
0.00100022
0.00101223
0.00101698
0.00101579
0.00100926
0.000998417
0.000984204
0.00096758
0.000949365
0.000930315
0.000910883
0.000890757
0.000869215
0.000845099
0.000817564
0.000785559
0.00101845
0.000996609
0.000969235
0.000933744
0.000886605
0.000825109
0.000756981
0.000728927
0.000782445
0.000847472
0.000903825
0.000949452
0.00098478
0.00101141
0.00102998
0.0010413
0.00104625
0.00104598
0.00104076
0.00103141
0.00101873
0.00100353
0.000986529
0.000968291
0.000949174
0.000929054
0.000907476
0.000883552
0.000855906
0.000822739
0.00108671
0.00106949
0.00104907
0.00102386
0.000991543
0.000951063
0.000908667
0.000894873
0.000933804
0.000983997
0.00102991
0.00106577
0.00109325
0.00111355
0.00112754
0.00113544
0.00113833
0.00113711
0.00113195
0.00112334
0.00111189
0.00109818
0.0010828
0.00106604
0.00104811
0.00102829
0.00100647
0.000982356
0.000955121
0.0009226
0.00132559
0.00132424
0.00132243
0.00131891
0.00131228
0.00130286
0.00129472
0.00129667
0.00130624
0.00132033
0.00133416
0.00134565
0.00135447
0.00136024
0.00136382
0.00136526
0.00136489
0.00136363
0.0013613
0.00135832
0.00135467
0.00135075
0.00134679
0.00134283
0.00133833
0.00132911
0.0013165
0.00130256
0.0012897
0.00127365
0.000149039
0.000159579
0.000161798
0.000160853
0.000157934
0.000153784
0.000148866
0.000143512
0.000137952
0.000132444
0.000127167
0.000122372
0.000118204
0.000114878
0.000112325
0.000110184
0.000107713
0.000104642
0.000100989
9.68614e-05
9.22953e-05
8.72186e-05
8.1714e-05
7.75015e-05
7.45441e-05
0.000315967
0.0003173
0.000321658
8.0663e-05
9.03068e-05
0.000580488
0.000672255
0.000680387
0.000662227
0.000635667
0.000606911
0.000580062
0.000556349
0.000536256
0.000519705
0.000505318
0.00049302
0.00048079
0.000467824
0.000450054
0.000424985
0.000390967
0.000356618
0.000327108
0.000304096
0.000286239
0.000270994
0.000255877
0.000248081
0.000247462
0.000270549
0.000290428
0.000299059
0.000328339
0.000386273
0.000954459
0.0010903
0.00114401
0.00114996
0.00113394
0.00110787
0.00108046
0.00105509
0.00103346
0.00101568
0.000999033
0.000982908
0.000963305
0.000938603
0.000902312
0.000849598
0.000777741
0.00070456
0.000640824
0.000589866
0.000551317
0.000519454
0.000486883
0.000463763
0.000456704
0.000461608
0.000462541
0.000438608
0.000444584
0.000512215
0.00115212
0.00136099
0.00145957
0.0015002
0.00151261
0.00150903
0.00150075
0.00149176
0.00148421
0.00147771
0.00146839
0.00145489
0.0014317
0.00139643
0.00134332
0.00126557
0.00115972
0.00105133
0.000954876
0.000876037
0.00081418
0.000762425
0.000711727
0.000671194
0.000652684
0.000647549
0.000631489
0.000579448
0.000538322
0.000556966
0.0011733
0.00142698
0.00160874
0.0017199
0.00177615
0.00180818
0.00183347
0.0018554
0.00187432
0.00188845
0.00189337
0.00188667
0.00186237
0.00181927
0.00175148
0.00165204
0.00151691
0.00137809
0.00125284
0.00114854
0.00106466
0.000994113
0.000926502
0.000869234
0.000836988
0.000821608
0.000794296
0.000720941
0.000637429
0.000611203
0.00108474
0.00140049
0.00164345
0.00181179
0.00192581
0.00201819
0.00208961
0.00215428
0.00220913
0.00225168
0.00227484
0.00227762
0.00225432
0.00220497
0.00212495
0.00200688
0.0018473
0.00168248
0.00153211
0.00140509
0.00130124
0.00121354
0.00113084
0.00105867
0.00101245
0.000985939
0.000951316
0.000862641
0.000747163
0.000684918
0.000960671
0.00129388
0.00158678
0.00182725
0.0020019
0.00213884
0.00228059
0.00239911
0.00249692
0.00257302
0.00261761
0.00263175
0.00260988
0.00255564
0.00246553
0.00233146
0.0021525
0.0019654
0.00179322
0.00164617
0.00152442
0.00142128
0.00132527
0.00124016
0.00118073
0.00114305
0.00110304
0.00100305
0.000863854
0.000770757
0.000826414
0.00113585
0.00146604
0.00176516
0.00201029
0.00221062
0.00240096
0.00260063
0.00274453
0.0028582
0.00292576
0.00295243
0.00293265
0.00287376
0.00277568
0.00262813
0.00243411
0.00222828
0.00203715
0.00187261
0.00173499
0.00161809
0.00151035
0.00141412
0.00134268
0.00129395
0.00124974
0.00114125
0.000984232
0.000864638
0.000712628
0.000960531
0.00130681
0.00165163
0.00195753
0.00222935
0.00248237
0.00274637
0.00295678
0.00311069
0.00320233
0.00324229
0.00322554
0.00316219
0.00305779
0.00289919
0.00269354
0.0024724
0.0022651
0.0020852
0.00193367
0.00180458
0.00168663
0.00158086
0.0014988
0.00143951
0.00139143
0.00127688
0.00110624
0.000963878
0.000645107
0.000808689
0.00113069
0.00150465
0.00186305
0.00220054
0.00252633
0.0028553
0.00314483
0.00333128
0.0034495
0.00350337
0.00349097
0.0034236
0.00331401
0.00314675
0.00293165
0.00269913
0.00247802
0.0022847
0.00212107
0.00198129
0.0018545
0.00174071
0.0016495
0.0015805
0.00152673
0.00140961
0.00122935
0.0010667
0.000623396
0.000719054
0.000969007
0.0013423
0.00174155
0.00213725
0.00253064
0.00293491
0.00329766
0.00352195
0.00366889
0.00373756
0.0037302
0.00366055
0.00354626
0.00337231
0.00314974
0.00290899
0.00267676
0.00247201
0.00229773
0.00214861
0.00201435
0.00189404
0.00179521
0.0017176
0.00165707
0.00153981
0.00135357
0.00117297
0.000677381
0.000688512
0.000851484
0.00118718
0.00160754
0.00204853
0.00250639
0.00298275
0.00341415
0.00369277
0.00386135
0.00394595
0.00394477
0.00387455
0.00375617
0.00357721
0.00334898
0.00310223
0.00286218
0.00264789
0.00246426
0.00230701
0.00216657
0.00204122
0.00193628
0.00185141
0.00178428
0.0016684
0.00147912
0.00128306
0.000773721
0.000754058
0.000801858
0.00105597
0.0014692
0.00194522
0.00246079
0.00299985
0.00349951
0.00383932
0.00403003
0.0041301
0.00413599
0.0040665
0.0039449
0.00376241
0.00353023
0.00327931
0.00303465
0.00281287
0.00262143
0.00245708
0.00231152
0.00218251
0.00207295
0.00198233
0.00190948
0.00179624
0.00160619
0.00139705
0.000910152
0.000868703
0.000856649
0.000981946
0.00134054
0.001836
0.00240104
0.00299973
0.00356305
0.00396062
0.00417822
0.00429125
0.00430466
0.00423684
0.00411303
0.00392842
0.00369404
0.00344094
0.00319381
0.00296744
0.00276966
0.00259949
0.00244968
0.00231818
0.00220542
0.00211058
0.00203329
0.00192389
0.00173491
0.00151492
0.00108439
0.00102324
0.000974147
0.000980851
0.00124475
0.0017352
0.00233713
0.00298768
0.00360324
0.00405969
0.00430808
0.00443122
0.00445046
0.0043856
0.00426037
0.00407516
0.0038406
0.00358738
0.00333961
0.00311132
0.00290917
0.00273448
0.00258162
0.00244836
0.00233371
0.00223615
0.00215595
0.00205156
0.0018652
0.00163629
0.00129375
0.00121307
0.00113207
0.00107252
0.00119576
0.00165139
0.00227519
0.00296834
0.00362909
0.00413944
0.00442155
0.00454991
0.00457248
0.00451193
0.00438596
0.00420193
0.00396944
0.00371835
0.00347189
0.00324345
0.00303996
0.00286202
0.00270722
0.00257316
0.00245769
0.00235874
0.00227721
0.00217906
0.00199671
0.00176057
0.00153384
0.00143301
0.00132271
0.00121329
0.0012142
0.00159263
0.00222035
0.00294575
0.00364478
0.00420162
0.00451049
0.00464334
0.00466947
0.00461395
0.00448797
0.00430719
0.00407931
0.00383279
0.00358976
0.00336324
0.0031605
0.00298154
0.00282589
0.00269208
0.0025768
0.00247765
0.00239642
0.00230569
0.00212869
0.00188701
0.00179744
0.00167628
0.00153784
0.00138499
0.00129769
0.00156439
0.00217615
0.0029229
0.00365236
0.00424625
0.00457255
0.00470829
0.00473906
0.00468827
0.00456343
0.0043883
0.00416784
0.00392861
0.00369128
0.00346938
0.00326896
0.00309138
0.00293624
0.00280391
0.00268979
0.00259156
0.00251227
0.00243016
0.00225984
0.00201432
0.00207431
0.00193393
0.0017689
0.00157891
0.00143163
0.00154572
0.00214438
0.00290162
0.00365282
0.00427164
0.00460311
0.00474135
0.00477638
0.0047302
0.00460816
0.00444117
0.00423116
0.00400221
0.00377393
0.00355865
0.00336273
0.00318851
0.00303587
0.00290603
0.00279427
0.00269822
0.00262248
0.00255013
0.00238806
0.00214072
0.00235156
0.00219468
0.00200623
0.00178419
0.00158285
0.00160069
0.00212965
0.00288239
0.00364373
0.00426026
0.00458785
0.00473533
0.00477433
0.00473268
0.00461581
0.00445966
0.00426327
0.0040484
0.00383212
0.00362609
0.00343729
0.00326838
0.00312015
0.00299419
0.00288621
0.00279392
0.00272345
0.00266106
0.00250993
0.00226357
0.00261318
0.0024448
0.00223841
0.00199012
0.00174139
0.00167406
0.00212501
0.00286357
0.00360603
0.00419923
0.00452148
0.00468106
0.00472274
0.00468592
0.00457688
0.00443494
0.00425575
0.0040582
0.00385721
0.00366371
0.00348459
0.00332303
0.00318193
0.00306183
0.00295947
0.00287299
0.00280961
0.00275595
0.00262003
0.00237893
0.00284085
0.0026686
0.00245248
0.00218652
0.00189891
0.00176182
0.00211034
0.00282164
0.00352507
0.00407601
0.0044096
0.00456516
0.00460747
0.00457656
0.00447835
0.00435457
0.00419537
0.00401818
0.00383596
0.0036585
0.00349217
0.00334221
0.00321112
0.00309937
0.00300492
0.00292711
0.0028725
0.00282782
0.0027109
0.00248043
0.0030143
0.00284901
0.00263346
0.00236085
0.00204111
0.00185141
0.00209771
0.00273959
0.00338165
0.00390264
0.00422595
0.00436709
0.00441088
0.00438869
0.00430462
0.00420193
0.00406517
0.00391075
0.00375041
0.00359315
0.00344468
0.0033102
0.0031924
0.00309222
0.00300922
0.00294368
0.00289936
0.00286479
0.00277051
0.00255784
0.0031147
0.002969
0.00276334
0.00248944
0.00214984
0.00191398
0.00207938
0.00262176
0.00319368
0.00365506
0.00393944
0.00407076
0.0041189
0.00410818
0.00404292
0.00396312
0.00384999
0.00372114
0.00358537
0.00345031
0.00332258
0.00320702
0.00310626
0.00302174
0.00295395
0.00290363
0.00287265
0.00285051
0.00278164
0.00259567
0.003136
0.0030125
0.0028187
0.0025479
0.00220799
0.00193711
0.00200718
0.00246941
0.00293153
0.00330397
0.00354907
0.00368201
0.0037387
0.00374627
0.00370675
0.00365068
0.00356338
0.00345984
0.00334714
0.00323433
0.0031276
0.00303153
0.00294908
0.00288189
0.00283075
0.00279705
0.00278036
0.00277228
0.00272764
0.00257568
0.00308205
0.00297498
0.00279709
0.00253675
0.00221054
0.00192295
0.00188104
0.00221671
0.00259589
0.00290803
0.00312646
0.00326444
0.0033419
0.00337582
0.0033672
0.0033358
0.003275
0.00319583
0.00310497
0.00301098
0.00292053
0.00283945
0.00277136
0.00271713
0.0026766
0.00265225
0.00264368
0.00264334
0.00261166
0.00249215
0.00297835
0.00288722
0.00273229
0.00250069
0.00220555
0.00191974
0.00180362
0.00201279
0.00232919
0.00260612
0.00281251
0.0029572
0.00305066
0.00310464
0.00312111
0.00310965
0.00307294
0.00301598
0.00294593
0.00286945
0.00279273
0.00272216
0.00266183
0.00261299
0.0025755
0.00254987
0.00253478
0.00252263
0.00248611
0.00238098
0.00289361
0.00282513
0.00270171
0.00251786
0.00228602
0.00205461
0.00193811
0.00205799
0.00229877
0.00252917
0.00270619
0.00283649
0.00292545
0.0029809
0.00300513
0.00300343
0.00298396
0.00294614
0.00289698
0.00284123
0.00278358
0.00272933
0.00268222
0.00264275
0.0026097
0.00258094
0.00255413
0.00252236
0.00246504
0.00235437
0.00281353
0.00276982
0.00269911
0.00259224
0.00245687
0.00231351
0.00224112
0.00231028
0.00245984
0.00260609
0.00272266
0.00281168
0.00287389
0.00291187
0.00292503
0.00292057
0.00290474
0.00287773
0.00284377
0.0028069
0.00277047
0.00273752
0.00271047
0.00268946
0.00267325
0.00265518
0.00263458
0.00260526
0.00255005
0.00246237
0.00278602
0.00277336
0.00274712
0.00269978
0.00262663
0.0025514
0.00251657
0.0025456
0.00261013
0.00266808
0.00271747
0.00275967
0.00278995
0.00280653
0.00280701
0.00279778
0.00278386
0.00276473
0.00274399
0.00272508
0.00271049
0.00270184
0.00269983
0.00270334
0.00270897
0.00271482
0.0027172
0.00271684
0.00269822
0.00266045
0.000169329
0.00018174
0.000183775
0.000182927
0.000180054
0.000175901
0.000170942
0.000165491
0.000159754
0.000153964
0.000148258
0.000142859
0.000137826
0.000133297
0.000129101
0.000124753
0.000119552
0.000113665
0.000107467
0.000101139
9.41224e-05
8.55596e-05
7.50353e-05
0.000318474
0.000322451
0.000313194
0.00030797
7.85627e-05
8.79913e-05
9.74603e-05
0.000660701
0.000823652
0.000883875
0.000888308
0.000870984
0.000844944
0.000815863
0.000786209
0.000756625
0.000727672
0.00069813
0.000668486
0.000635579
0.000599098
0.000554798
0.000503378
0.000449051
0.000409324
0.000385985
0.000376302
0.0003689
0.000353016
0.000313007
0.000341982
0.000404032
0.000394377
0.000322198
0.000277406
0.000378622
0.000464749
0.00107189
0.00135099
0.00150084
0.00156987
0.00159003
0.00158317
0.00156161
0.00153189
0.00149707
0.00145809
0.00141286
0.00136154
0.00129878
0.00122337
0.00113081
0.00102149
0.000904771
0.000815943
0.000757172
0.000724416
0.000702812
0.00066507
0.000589463
0.000555535
0.000604885
0.000619709
0.000524416
0.000450884
0.000544621
0.000686877
0.00135512
0.00174795
0.00195434
0.00207756
0.00214266
0.00217226
0.00218007
0.00217228
0.00215293
0.00212184
0.00207584
0.00201374
0.00192981
0.00182074
0.00168587
0.00152552
0.00135524
0.0012189
0.00112316
0.00106268
0.00101831
0.00095926
0.000854952
0.000777692
0.000807111
0.000835039
0.000735152
0.000616809
0.000656814
0.000795379
0.00153844
0.00195985
0.00226587
0.00243652
0.00255104
0.00262635
0.00267782
0.00270742
0.00271709
0.00270537
0.0026682
0.00260255
0.00250022
0.00236504
0.00219522
0.00199174
0.00177561
0.00159859
0.00146901
0.00138119
0.00131421
0.00123584
0.0011104
0.00100137
0.00100524
0.00103597
0.000943856
0.000794562
0.000770482
0.000890454
0.00158
0.00200238
0.00235009
0.00262873
0.00283367
0.00296588
0.00307578
0.00315697
0.00320631
0.00322117
0.00319737
0.00313137
0.00301758
0.00285945
0.00266028
0.00242028
0.00216736
0.0019541
0.00179369
0.00168002
0.00159185
0.00149671
0.00135645
0.00122475
0.00120149
0.00122629
0.00114687
0.000982787
0.000901848
0.000993372
0.00153355
0.00195277
0.00235187
0.00269244
0.00296685
0.00320542
0.00339129
0.00353716
0.00363523
0.00368224
0.00367359
0.0036096
0.00348638
0.00330987
0.00308593
0.00281547
0.00253268
0.00228723
0.00209868
0.00196102
0.00185326
0.00174362
0.00159334
0.00144616
0.00139718
0.00140938
0.00134305
0.001176
0.00105163
0.00110804
0.0014277
0.00185266
0.00229524
0.00269786
0.00304622
0.00334782
0.00363745
0.00386086
0.0040138
0.00409819
0.00410554
0.00404311
0.00391252
0.00372174
0.00347665
0.00318121
0.00287377
0.00259997
0.00238563
0.00222597
0.00210027
0.00197804
0.00182116
0.0016641
0.00159277
0.00158921
0.00153302
0.00137034
0.00121417
0.00123523
0.00130082
0.00170845
0.00218545
0.00264797
0.0030682
0.00344818
0.00380725
0.00414026
0.00434881
0.00447308
0.00449989
0.00443747
0.00430049
0.00409917
0.0038363
0.00352061
0.00319227
0.00289396
0.00265614
0.00247642
0.00233445
0.00220128
0.00204017
0.00187746
0.00178813
0.00176814
0.0017182
0.00156369
0.00138561
0.00137315
0.00117428
0.00153727
0.00203144
0.00255092
0.00304545
0.00350719
0.00394598
0.00436043
0.00464363
0.00481108
0.00485763
0.00479753
0.00465355
0.00444508
0.00416807
0.00383592
0.00348925
0.00317069
0.00291153
0.00271376
0.00255718
0.00241469
0.00225078
0.00208566
0.00198284
0.00194747
0.00190015
0.00175517
0.00156372
0.00152018
0.00106353
0.0013759
0.00185802
0.00242174
0.00298878
0.00353412
0.004055
0.00454333
0.00491326
0.00511348
0.00517988
0.00512659
0.00497499
0.00476169
0.00447419
0.00412862
0.00376605
0.00343074
0.00315305
0.00293928
0.00276988
0.00261916
0.0024539
0.00228866
0.00217654
0.00212779
0.00208037
0.00194467
0.00174834
0.00167185
0.000990235
0.00123044
0.00168945
0.0022797
0.00290986
0.00353264
0.00413935
0.00470197
0.0051447
0.00537545
0.00546966
0.00542563
0.00526762
0.00505009
0.00475595
0.00439954
0.00402348
0.00367483
0.00338186
0.00315429
0.00297361
0.00281566
0.00265014
0.00248679
0.00236885
0.00230922
0.00225995
0.00213234
0.00193757
0.00182773
0.000963536
0.00114125
0.00152951
0.00212855
0.0028066
0.0035089
0.00420049
0.00483405
0.00533638
0.00560263
0.00572867
0.00569529
0.00553232
0.0053107
0.00501378
0.00464876
0.00426194
0.00390352
0.00359904
0.00335991
0.00316937
0.00300517
0.00284021
0.0026803
0.00255941
0.00249147
0.00243934
0.00231821
0.00212766
0.00198908
0.00102441
0.00112324
0.00143354
0.00197799
0.00268852
0.00346517
0.00423875
0.00493704
0.00549043
0.00580794
0.00595852
0.0059343
0.00576941
0.00554292
0.00524651
0.00487541
0.00448155
0.00411699
0.00380542
0.00355688
0.00335795
0.00318844
0.00302461
0.00286932
0.00274761
0.00267378
0.00261829
0.00250185
0.00231542
0.00215586
0.00117954
0.0012405
0.00141384
0.00187422
0.00257451
0.00340438
0.00425205
0.00501561
0.00561941
0.00598462
0.00615583
0.00613974
0.00597695
0.00574499
0.00545113
0.00507757
0.0046816
0.0043152
0.00400079
0.00374531
0.00353957
0.00336572
0.00320359
0.00305351
0.00293242
0.00285484
0.00279569
0.0026823
0.00250019
0.00232525
0.00142889
0.00146062
0.0015414
0.00183931
0.00249012
0.00335044
0.00425867
0.00507872
0.00572183
0.00613016
0.00631458
0.00630644
0.0061503
0.00591354
0.00562291
0.00525216
0.00486031
0.0044971
0.00418375
0.00392415
0.00371345
0.00353652
0.00337663
0.00323157
0.00311216
0.00303252
0.0029694
0.00285766
0.00267984
0.00249464
0.00175321
0.00174266
0.00174566
0.0018801
0.00244159
0.00330788
0.00426058
0.00512619
0.00579813
0.00624882
0.00642228
0.00642667
0.00628226
0.00604277
0.00575618
0.005395
0.00501435
0.00465965
0.00435114
0.00409072
0.00387743
0.00369888
0.0035414
0.00340094
0.00328424
0.00320352
0.00313598
0.00302486
0.00285116
0.00266019
0.00211329
0.0020546
0.00200167
0.00202031
0.00243275
0.00327879
0.00425845
0.00515714
0.00585428
0.00631326
0.00647974
0.00649286
0.00636244
0.00612606
0.00584328
0.00550033
0.00513788
0.00479739
0.00449737
0.00424005
0.00402694
0.00384842
0.00369365
0.00355787
0.00344459
0.00336286
0.00329035
0.00317934
0.00301001
0.00281638
0.00246587
0.00237116
0.00226716
0.00221388
0.00245549
0.00326138
0.00425125
0.00516917
0.00587847
0.00629908
0.00647433
0.00649397
0.0063789
0.00615338
0.00587609
0.00556006
0.00522268
0.00490168
0.0046137
0.00436396
0.0041543
0.00397798
0.00382688
0.0036961
0.00358662
0.00350315
0.0034254
0.00331479
0.00315095
0.00295779
0.00279533
0.00266731
0.00252374
0.00242077
0.00254155
0.00325418
0.00423617
0.0051534
0.00581818
0.00620312
0.00639283
0.00641751
0.00631967
0.00611221
0.00584567
0.00556432
0.00525771
0.00496022
0.00468822
0.0044505
0.00424801
0.00407681
0.00393089
0.00380543
0.00369933
0.00361412
0.00353187
0.00342306
0.00326687
0.00307908
0.00308003
0.00292548
0.00275165
0.0026024
0.00262751
0.00322491
0.00418706
0.00504525
0.00563772
0.00603605
0.00622057
0.00625353
0.0061726
0.00599014
0.005744
0.00550258
0.00522986
0.00495806
0.0047072
0.00448477
0.00429307
0.00412978
0.0039903
0.00387062
0.00376847
0.00368313
0.00359883
0.00349458
0.00334919
0.00317287
0.00330478
0.0031321
0.00293708
0.00275457
0.00272047
0.00316739
0.00403143
0.00480884
0.00537382
0.0057712
0.00594841
0.00599337
0.00593039
0.00577955
0.0055666
0.00536646
0.00512718
0.00488483
0.00465716
0.00445228
0.00427298
0.00411923
0.00398849
0.00387676
0.00378065
0.00369782
0.00361578
0.00351991
0.00338863
0.00323083
0.00345928
0.00327828
0.00307108
0.00286528
0.00278218
0.00307858
0.00380592
0.00449742
0.0050517
0.00539892
0.00557753
0.00563779
0.00559821
0.0054869
0.00531664
0.00515611
0.0049513
0.00473938
0.00453515
0.00434804
0.0041835
0.00404174
0.00392121
0.00381863
0.00372976
0.00365166
0.00357687
0.00349271
0.00337683
0.00324289
0.00354054
0.0033613
0.00314936
0.00292344
0.00278012
0.00293292
0.00357373
0.00416175
0.00462873
0.00494295
0.00513129
0.00521024
0.00520489
0.0051394
0.00501769
0.00489412
0.00472475
0.00454304
0.00436405
0.004196
0.0040458
0.00391496
0.00380301
0.00370767
0.00362556
0.00355392
0.00348766
0.00341557
0.00331299
0.00320201
0.00355838
0.00338985
0.00317972
0.00293696
0.00273607
0.00275353
0.00322842
0.00373498
0.00415319
0.00446349
0.00466441
0.00477222
0.00480907
0.00479084
0.00471767
0.00462689
0.0044913
0.00433876
0.00418402
0.00403496
0.00389843
0.0037771
0.00367157
0.00358067
0.00350224
0.00343429
0.00337299
0.00330818
0.00321466
0.00311163
0.00353875
0.00338883
0.00318971
0.00294343
0.00270161
0.00261034
0.00288356
0.00332262
0.00373049
0.00404454
0.00426357
0.00440282
0.00447752
0.00449784
0.00446406
0.00439811
0.00429047
0.00416337
0.00403104
0.00390079
0.00377896
0.0036687
0.00357092
0.00348488
0.00340891
0.00334162
0.00327996