/*--------------------------------*- C++ -*----------------------------------*\
| =========                 |                                                 |
| \\      /  F ield         | OpenFOAM: The Open Source CFD Toolbox           |
|  \\    /   O peration     | Version:  5.0                                   |
|   \\  /    A nd           | Web:      www.OpenFOAM.org                      |
|    \\/     M anipulation  |                                                 |
\*---------------------------------------------------------------------------*/
FoamFile
{
    version     2.0;
    format      ascii;
    class       volScalarField;
    location    "1350/air";
    object      alphat;
}
// * * * * * * * * * * * * * * * * * * * * * * * * * * * * * * * * * * * * * //

dimensions      [1 -1 -1 0 0 0 0];

internalField   nonuniform List<scalar> 
243000
(
0.000154703
0.000159675
0.000157605
0.000153446
0.000147907
0.000141643
0.000135082
0.000128525
0.000122172
0.000116169
0.000110551
0.000105356
0.000100561
9.62585e-05
9.25031e-05
8.95074e-05
8.74281e-05
8.62413e-05
8.65119e-05
8.7605e-05
8.8265e-05
8.85383e-05
8.81044e-05
8.67008e-05
8.64074e-05
8.46062e-05
0.000374061
0.000365998
0.000338018
0.000336575
0.000665966
0.000712932
0.000726473
0.000728991
0.000724476
0.000715015
0.000702171
0.000687086
0.000670529
0.000652981
0.000634668
0.000615954
0.000597044
0.000578857
0.000562045
0.000548035
0.000537663
0.000532794
0.000531236
0.000530085
0.00052735
0.000520869
0.000508857
0.000490739
0.000462833
0.000436569
0.000409298
0.000378291
0.00034338
0.000322249
0.000711077
0.000759325
0.000776523
0.000781203
0.000777731
0.000768828
0.000756131
0.00074088
0.000723904
0.000705788
0.00068684
0.000667606
0.000648407
0.000630359
0.000614237
0.000601641
0.000593313
0.000590175
0.00059016
0.000590607
0.000588647
0.000582261
0.000569821
0.000550709
0.000525327
0.000495302
0.000461555
0.000422991
0.000382677
0.000348314
0.000722058
0.000774113
0.000797954
0.000806639
0.000806366
0.00079997
0.00078914
0.000775223
0.00075916
0.000741669
0.000723183
0.000704426
0.000685846
0.00066876
0.00065407
0.000643543
0.000637766
0.000637038
0.00063872
0.000640077
0.000638262
0.000631512
0.000618501
0.000598661
0.00057255
0.000541001
0.000504889
0.000463179
0.000419747
0.000380105
0.000713839
0.000767599
0.000797987
0.000813472
0.000818267
0.000815496
0.000807529
0.000795833
0.000781501
0.000765393
0.000748092
0.000730474
0.000713147
0.000697618
0.000684899
0.000676896
0.000673961
0.000675736
0.00067905
0.000681064
0.000679138
0.000671856
0.000658255
0.000637907
0.000611303
0.000579099
0.000542057
0.000499092
0.000453557
0.000411248
0.000692252
0.000748504
0.000785803
0.000807535
0.00081767
0.000819432
0.00081499
0.000806117
0.000794081
0.000779876
0.000764258
0.000748257
0.000732645
0.000719104
0.000708758
0.000703616
0.000703682
0.00070792
0.000712743
0.00071528
0.000713161
0.000705314
0.000691149
0.000670434
0.000643613
0.000611246
0.000574013
0.000530862
0.000484017
0.000440145
0.000659787
0.000719878
0.000763605
0.00079171
0.000807669
0.000814354
0.000814066
0.000808431
0.000798944
0.000787016
0.0007735
0.000759476
0.000745923
0.000734709
0.00072705
0.000725041
0.000728146
0.000734779
0.000740998
0.000743981
0.000741658
0.00073328
0.000718603
0.000697613
0.000670758
0.000638536
0.00060153
0.000558779
0.000511368
0.000466554
0.000621666
0.000685547
0.000734153
0.000768331
0.000790119
0.000801998
0.000806079
0.000804191
0.000797868
0.000788488
0.000777116
0.000765348
0.000754123
0.000745507
0.00074079
0.000742106
0.000748256
0.000757191
0.000764699
0.000768096
0.000765598
0.000756762
0.00074164
0.000720451
0.000693669
0.000661772
0.000625241
0.000583246
0.000536107
0.000490643
0.000582919
0.000649762
0.000702614
0.000740671
0.000766996
0.000783849
0.000792396
0.000794459
0.000791535
0.000785067
0.000776315
0.000766873
0.000758117
0.000752316
0.000750738
0.0007555
0.000764687
0.000775811
0.000784525
0.000788322
0.000785706
0.000776502
0.000761026
0.000739704
0.000713068
0.000681593
0.00064568
0.000604629
0.000558088
0.000512433
0.000549084
0.000611954
0.000669178
0.000711907
0.000742025
0.000761977
0.000774403
0.000780291
0.000780928
0.000777603
0.000771636
0.000764783
0.000758625
0.000755757
0.000757487
0.000765729
0.000777953
0.000791147
0.000800992
0.000805195
0.000802536
0.00079307
0.00077734
0.000755955
0.000729521
0.00069853
0.000663402
0.000623137
0.000577348
0.000532053
0.000529453
0.000574328
0.000633214
0.00068096
0.000715696
0.000739394
0.000754611
0.000763078
0.000767002
0.000766859
0.000763789
0.000759661
0.000756211
0.000756367
0.000761483
0.000773214
0.00078841
0.000803594
0.000814505
0.000819133
0.00081652
0.000806906
0.000791035
0.000769665
0.000743484
0.000713062
0.000678552
0.000639005
0.000594052
0.00054951
0.000534918
0.000546324
0.000596249
0.000647256
0.000687113
0.000715318
0.000734013
0.00074524
0.000751254
0.000753693
0.000753411
0.00075201
0.000751348
0.000754539
0.000763083
0.000778275
0.00079633
0.000813455
0.000825384
0.00083047
0.000827998
0.000818363
0.000802469
0.000781198
0.000755342
0.00072543
0.000691454
0.000652612
0.000608706
0.000565006
0.000571463
0.000545063
0.000566788
0.000612306
0.000655925
0.000689082
0.000712019
0.000726618
0.00073518
0.000739482
0.000741246
0.000742347
0.000744401
0.000750621
0.000762581
0.000781159
0.000801944
0.000820936
0.000833883
0.000839471
0.000837248
0.000827726
0.000811931
0.000790843
0.000765385
0.000735914
0.000702422
0.000664202
0.000621658
0.00057883
0.000621403
0.000584533
0.000562766
0.000584272
0.000623941
0.000660659
0.000688192
0.000706796
0.000718439
0.000725022
0.000728441
0.000731266
0.000735747
0.000744912
0.000760207
0.000782057
0.000805425
0.000826196
0.000840204
0.000846351
0.000844492
0.000835216
0.000819634
0.000798898
0.000773801
0.000744758
0.000711694
0.000674003
0.000632995
0.000591109
0.000669861
0.000640258
0.000598318
0.000579786
0.000598825
0.000632101
0.000662765
0.000685544
0.000700753
0.000710061
0.000715486
0.000719614
0.000725826
0.000737685
0.000756157
0.000781113
0.000806843
0.000829348
0.000844491
0.000851284
0.000849908
0.000841002
0.000825808
0.000805491
0.000780797
0.000752175
0.000719493
0.000682259
0.000642876
0.000601974
0.000717129
0.000692204
0.000656366
0.000613275
0.000595163
0.000610311
0.000637829
0.000663248
0.000682039
0.000694424
0.0007022
0.00070796
0.000715147
0.000729222
0.000750598
0.000778452
0.000806612
0.000830568
0.000846808
0.000854418
0.000853645
0.000845263
0.000830635
0.000810782
0.000786542
0.000758336
0.000726018
0.000689619
0.000651614
0.000611622
0.000763408
0.000741295
0.000711073
0.000666634
0.000623827
0.000606934
0.00061904
0.000641774
0.000662729
0.000678115
0.000688482
0.00069617
0.000704651
0.000719874
0.0007437
0.000774171
0.00080445
0.00083014
0.000847442
0.000855876
0.000855837
0.000848186
0.000834179
0.000814903
0.000791181
0.000763405
0.000731459
0.000696385
0.000659492
0.000620263
0.000808857
0.000788117
0.000760692
0.000722619
0.000673684
0.000630836
0.000615366
0.000625446
0.000644302
0.000661517
0.000674367
0.000684173
0.000694202
0.000710016
0.000735663
0.000768383
0.000800609
0.000827819
0.000846442
0.000855881
0.000856632
0.000849813
0.000836563
0.000817987
0.000794865
0.000767568
0.000736016
0.000702457
0.000666611
0.000628046
0.000853419
0.000833108
0.000807049
0.000772994
0.000727004
0.000674257
0.000633203
0.000620522
0.000629774
0.00064569
0.000660154
0.000672009
0.000683736
0.000700472
0.000726788
0.000761228
0.000795162
0.000823849
0.000843765
0.000854349
0.000856082
0.000850197
0.000837913
0.000820184
0.000797767
0.000771009
0.000740573
0.000708099
0.000673117
0.0006351
0.000896998
0.000876488
0.000850905
0.000818519
0.00077669
0.000723988
0.000668944
0.000631961
0.000623351
0.00063259
0.000646547
0.000659869
0.000673275
0.000691136
0.000717482
0.000752902
0.000788226
0.00081832
0.000839573
0.000851432
0.000854329
0.000849521
0.000838363
0.000821667
0.000800077
0.000773943
0.000744865
0.00071339
0.000679129
0.000641536
0.000939447
0.000918344
0.000892727
0.000861271
0.000822486
0.000772533
0.000713318
0.000658901
0.000628675
0.000624893
0.000634755
0.00064819
0.000662953
0.000681984
0.000708611
0.000743758
0.000779991
0.000811333
0.000833926
0.000847182
0.000851445
0.000847955
0.000837985
0.0008225
0.000801916
0.000776889
0.000749021
0.000718437
0.000684768
0.000647472
0.000980597
0.000958695
0.000932915
0.000903137
0.000865747
0.000818039
0.000759075
0.000695743
0.00064642
0.000625149
0.000626395
0.000637709
0.000653022
0.000673049
0.000700075
0.000734573
0.000770752
0.000802995
0.00082686
0.000841587
0.000847419
0.000845425
0.00083687
0.00082275
0.000803407
0.000779917
0.000753201
0.000723401
0.000690189
0.000653042
0.00102043
0.000997791
0.000972587
0.000943337
0.000906642
0.000860428
0.000802984
0.000736456
0.000673979
0.000634574
0.000623192
0.000629467
0.000643994
0.000664552
0.000691935
0.000726002
0.000761778
0.000793993
0.000818599
0.000834691
0.000842232
0.000841906
0.000835066
0.000822499
0.000804993
0.000783112
0.000757553
0.000728496
0.000695604
0.000658432
0.00105929
0.00103739
0.00101255
0.000982483
0.000945662
0.000900285
0.000844214
0.00077739
0.000707596
0.000652863
0.000626666
0.000624791
0.000636699
0.000657
0.000684514
0.000718255
0.000753707
0.000785921
0.000811255
0.000828542
0.000837662
0.000839041
0.000833922
0.00082297
0.000807097
0.000786742
0.000762324
0.000733975
0.000701341
0.000663962
0.00109936
0.00107714
0.00105063
0.00101969
0.000982817
0.000938113
0.000883478
0.000817769
0.000744932
0.000679254
0.000638343
0.00062581
0.000632865
0.000651802
0.00067906
0.000712456
0.000747488
0.000779645
0.000805567
0.000823952
0.00083456
0.00083759
0.000833987
0.000824655
0.000810302
0.000791358
0.00076805
0.000740359
0.000707866
0.000670071
0.00113199
0.0011103
0.00108447
0.00105437
0.00101862
0.000975507
0.000923082
0.000859765
0.000787095
0.000715183
0.000661815
0.000637387
0.000637219
0.000653455
0.000679918
0.000712779
0.000747307
0.00077917
0.000805303
0.000824294
0.000835707
0.000839956
0.000837766
0.000829765
0.000816672
0.000798923
0.000776599
0.000749439
0.000716759
0.000677944
0.00116398
0.00114335
0.00111947
0.00109142
0.00105802
0.00101788
0.000969241
0.000910407
0.000841504
0.000769078
0.000708265
0.000673178
0.000664741
0.000676699
0.000701442
0.000732772
0.000765455
0.000795595
0.000820449
0.000838731
0.000849926
0.000854366
0.000852653
0.000845232
0.000832756
0.0008156
0.000793682
0.00076662
0.000733404
0.000692728
0.00120752
0.00118826
0.00116652
0.00114169
0.00111295
0.00107907
0.00103839
0.000989269
0.00093118
0.000867806
0.000810449
0.000772794
0.000759417
0.000766548
0.000787332
0.000813886
0.000840552
0.00086483
0.000884445
0.000898279
0.000905987
0.000907843
0.000904162
0.000895294
0.000881675
0.000863543
0.00084084
0.000812823
0.000777969
0.000733668
0.00128964
0.00127474
0.00125983
0.00124463
0.00122839
0.00120976
0.001187
0.0011588
0.00112448
0.00108546
0.00104902
0.00102442
0.00101492
0.00101894
0.00103182
0.00104769
0.00106199
0.00107396
0.00108231
0.00108648
0.00108657
0.00108245
0.00107431
0.00106222
0.00104595
0.0010254
0.00100149
0.00097283
0.00093798
0.000894001
0.00156116
0.00155977
0.00156262
0.00156502
0.00156619
0.00156537
0.00156181
0.00155533
0.00154504
0.00152988
0.00151553
0.00150521
0.00149927
0.00149788
0.0014994
0.00150325
0.00150604
0.00150906
0.00151148
0.00151366
0.00151538
0.00151654
0.00151676
0.00151566
0.00151066
0.00150086
0.00149148
0.00147804
0.0014603
0.00143815
0.000187768
0.000196876
0.000195934
0.000191543
0.000185172
0.000177745
0.00016986
0.000161932
0.0001542
0.000146848
0.000139946
0.000133612
0.000127864
0.000122904
0.000118815
0.00011589
0.000114223
0.000113972
0.000114919
0.000116457
0.000117574
0.000117317
0.000114963
0.00011014
0.00010287
9.35642e-05
0.000381424
0.000363343
0.000359308
8.5051e-05
0.000683716
0.000780202
0.000762578
0.000716673
0.000664735
0.000613885
0.000568285
0.000528416
0.000493713
0.000463793
0.00043771
0.000415591
0.000396449
0.000381655
0.000370413
0.000364065
0.000360758
0.000361476
0.000363155
0.000365411
0.00036757
0.0003683
0.000362996
0.000349749
0.000329296
0.000300899
0.000285277
0.000315394
0.000400405
0.00035636
0.00105816
0.00123665
0.00125949
0.0012234
0.00116274
0.0010951
0.00102961
0.000969642
0.00091578
0.000868404
0.000826614
0.000791271
0.000761158
0.000739203
0.000724262
0.000717978
0.000715868
0.000717133
0.000714215
0.000707617
0.000699153
0.000688632
0.000671295
0.000642395
0.00060074
0.000546179
0.000487081
0.000440514
0.000451637
0.000477225
0.00124999
0.00148634
0.00157437
0.00157199
0.00152866
0.00146762
0.00140138
0.00133684
0.00127652
0.00122207
0.00117361
0.00113315
0.00110024
0.00107895
0.00106799
0.00106886
0.00107354
0.00107693
0.00106902
0.00105186
0.00102873
0.00100303
0.000969321
0.000922219
0.000859747
0.000781456
0.000693289
0.000602041
0.000546583
0.00053538
0.00133452
0.00158614
0.00172197
0.00177357
0.00176919
0.00172936
0.0016746
0.001616
0.00155877
0.00150557
0.00145814
0.00141982
0.00139154
0.00137811
0.00137825
0.00139278
0.00140785
0.00141458
0.00140219
0.00137517
0.00133773
0.00129653
0.00124716
0.0011836
0.00110278
0.00100504
0.000895242
0.000774892
0.000673598
0.000615081
0.00135084
0.00161488
0.00178645
0.00187654
0.00190708
0.00189702
0.00186164
0.00181532
0.00176857
0.00172289
0.00168259
0.00165245
0.00163488
0.00163572
0.00165313
0.00168636
0.00171375
0.00172404
0.00170741
0.00167153
0.00162115
0.00156564
0.00150216
0.00142401
0.00132886
0.00121645
0.00109066
0.000951209
0.000820489
0.000721503
0.0013113
0.00156891
0.00176917
0.00189687
0.00196444
0.00198621
0.00197698
0.00195224
0.00191545
0.00188152
0.00185339
0.00183649
0.00183474
0.00185509
0.00189568
0.00195136
0.00199143
0.00200477
0.00198419
0.00194034
0.00187851
0.00181039
0.00173452
0.0016443
0.00153809
0.00141484
0.00127787
0.00112578
0.000976834
0.000846445
0.00119355
0.00144689
0.0016794
0.00184773
0.00195405
0.00201012
0.00202861
0.0020258
0.0020087
0.00199094
0.00197687
0.0019774
0.00199598
0.00204045
0.00210963
0.00219013
0.00224264
0.00225787
0.0022337
0.00218288
0.00211109
0.00203218
0.00194485
0.00184539
0.00173097
0.00160037
0.00145571
0.00129529
0.00113496
0.000981113
0.00105322
0.0012799
0.001529
0.00173867
0.00188579
0.00197835
0.00202586
0.0020473
0.00205297
0.00205497
0.00206049
0.00208177
0.00212319
0.00219672
0.00229787
0.00240438
0.00246935
0.00248521
0.00245779
0.00240106
0.0023209
0.00223286
0.00213589
0.00202878
0.00190835
0.00177317
0.00162403
0.00145914
0.00129188
0.001119
0.000920285
0.00110004
0.00134273
0.00157899
0.00176613
0.0018984
0.00197611
0.00202412
0.00205435
0.00207937
0.00210799
0.00215295
0.00221903
0.00232728
0.00246264
0.00259547
0.00267334
0.00268907
0.00265843
0.00259702
0.00251023
0.00241366
0.00230934
0.00219614
0.00207146
0.00193377
0.00178339
0.00161678
0.00144442
0.00125487
0.000823204
0.000936493
0.00114833
0.00138996
0.00160475
0.00177158
0.00188506
0.00196383
0.00202039
0.00206989
0.00212353
0.00219485
0.00229011
0.00243582
0.00260633
0.00276501
0.00285616
0.00287149
0.00283797
0.00277299
0.00268129
0.00257746
0.00246722
0.00234926
0.0022218
0.00208351
0.00193279
0.00176458
0.00158982
0.00138469
0.000780095
0.000815638
0.000972074
0.00119432
0.00141944
0.00161179
0.00175697
0.00186806
0.00195677
0.00203239
0.00211185
0.00221103
0.00233853
0.00252253
0.0027305
0.00291406
0.00301596
0.00303493
0.00299899
0.00293117
0.00283511
0.00272668
0.00261161
0.00248997
0.0023609
0.00222322
0.00207093
0.00190256
0.00172547
0.00150863
0.000802495
0.000766499
0.000841591
0.00101783
0.00123098
0.00143451
0.00160381
0.00174402
0.00186318
0.00196993
0.00207712
0.00220461
0.00236722
0.00259296
0.00283677
0.00304343
0.00315488
0.00317759
0.00314196
0.00307353
0.00297638
0.00286462
0.00274476
0.00262006
0.00249107
0.00235159
0.00219875
0.00203101
0.00185051
0.00162877
0.000888982
0.000801966
0.000793949
0.00089247
0.0010655
0.00125908
0.00143966
0.00160215
0.00174755
0.00188326
0.00202158
0.0021786
0.00237871
0.00264685
0.0029253
0.00315364
0.00327571
0.00330207
0.00326696
0.00320112
0.00310474
0.00299126
0.0028689
0.00274235
0.0026115
0.00247073
0.00231767
0.00215143
0.00196578
0.00173858
0.00104154
0.000923278
0.000852192
0.000854757
0.000957189
0.00111053
0.00128286
0.00145463
0.00161874
0.00177907
0.0019464
0.00213513
0.00237495
0.00268489
0.00299677
0.00324482
0.00337753
0.00341205
0.00337938
0.00331544
0.00321936
0.0031064
0.00298409
0.00285692
0.002724
0.00258209
0.00242913
0.00226578
0.00207241
0.0018387
0.0012647
0.00112613
0.00101296
0.000938006
0.000932423
0.00102031
0.00115603
0.00131658
0.00148756
0.0016654
0.0018575
0.00207671
0.00235681
0.00270737
0.00305088
0.00331795
0.00345983
0.00350453
0.00347798
0.00341713
0.00332294
0.00321161
0.00309158
0.00296386
0.00282968
0.00268711
0.0025353
0.00237163
0.00217038
0.00192948
0.00155947
0.00140784
0.00126485
0.00113387
0.00103993
0.00102092
0.00108753
0.00120871
0.0013678
0.00155191
0.00176166
0.00200901
0.00232652
0.00271483
0.00308751
0.00337211
0.00352729
0.00357902
0.00356259
0.00350645
0.00341633
0.00330747
0.00318958
0.00306359
0.00292961
0.00278741
0.00263849
0.00246855
0.00225962
0.00201119
0.00191915
0.00175791
0.00159166
0.00141994
0.0012572
0.0011387
0.00110189
0.00115453
0.00127627
0.00144985
0.00166678
0.00193822
0.00228755
0.00270748
0.00310598
0.00340695
0.00357881
0.00364083
0.0036332
0.00358285
0.00349883
0.00339345
0.00327885
0.00315672
0.00302502
0.00288646
0.00273869
0.00255929
0.0023414
0.0020848
0.00231604
0.00215383
0.00197085
0.0017697
0.001557
0.00135843
0.00121823
0.00117353
0.00123006
0.00137175
0.00158295
0.00186954
0.00224268
0.00268498
0.003105
0.00342047
0.00360523
0.00368418
0.00368821
0.00364588
0.00356931
0.00347059
0.00336306
0.0032461
0.00311968
0.00298433
0.00283215
0.00264443
0.00241705
0.00215163
0.00272982
0.00256713
0.00237614
0.00215541
0.00190783
0.00165058
0.00142319
0.00127709
0.0012443
0.00133004
0.00151886
0.0018078
0.00219419
0.00264855
0.00308117
0.00340869
0.00360563
0.00370488
0.00372289
0.00369202
0.00362689
0.00354198
0.00344406
0.00333572
0.00321591
0.00308121
0.00292097
0.00272473
0.00248772
0.00221305
0.0031369
0.00297522
0.00278138
0.0025487
0.00227818
0.00198069
0.00168817
0.001453
0.00132627
0.00133324
0.00148067
0.00175765
0.00214243
0.00259774
0.00302855
0.00336164
0.00357845
0.00369264
0.00372526
0.00371163
0.00366242
0.0035901
0.00350255
0.00340434
0.00329376
0.00316581
0.00300093
0.00279843
0.00255326
0.00227009
0.00350855
0.00335079
0.00315723
0.0029191
0.00263564
0.00231359
0.00197747
0.00167429
0.001462
0.00138711
0.0014668
0.00170549
0.00206854
0.00250288
0.00291883
0.00325534
0.00348575
0.0036199
0.00367451
0.00368164
0.00365493
0.00360151
0.00353071
0.0034471
0.00334765
0.00322451
0.0030631
0.00285722
0.00260961
0.00232121
0.00381045
0.00365941
0.00346931
0.00323225
0.00294549
0.00261267
0.0022522
0.00190381
0.00162379
0.00146973
0.00147256
0.00165556
0.00197255
0.00235885
0.00273546
0.00305516
0.00329445
0.00344978
0.00352788
0.00356254
0.00356663
0.00354157
0.00349627
0.00343531
0.00335512
0.00324423
0.00309427
0.00289764
0.00264666
0.00235877
0.00400357
0.00386093
0.00368085
0.00345257
0.00317181
0.00284011
0.00247162
0.00209913
0.00177259
0.00155051
0.00147613
0.00156704
0.00181399
0.00212926
0.00244726
0.00273799
0.00297801
0.00314104
0.00324572
0.0033114
0.00335261
0.00336404
0.00335311
0.00332412
0.00327473
0.00319474
0.0030675
0.00289239
0.00266391
0.00238308
0.00404801
0.00392007
0.00375947
0.00354866
0.00328304
0.00296355
0.0026025
0.00222699
0.00187857
0.00160826
0.00146099
0.00145405
0.00159555
0.00183421
0.0020899
0.00234623
0.00256626
0.00272998
0.00285173
0.00294254
0.00301355
0.00305719
0.00307995
0.00308522
0.00307143
0.00303018
0.00294676
0.00280493
0.00260963
0.00236554
0.00394936
0.00384132
0.00370249
0.0035157
0.00327507
0.00298231
0.00265055
0.00230249
0.00197033
0.00169266
0.00150742
0.00143266
0.00148204
0.00163597
0.00183901
0.00204874
0.00222644
0.00237155
0.00248575
0.00258076
0.00265418
0.00270601
0.00274092
0.00276174
0.00276786
0.00275333
0.00270634
0.00261254
0.00245519
0.00224978
0.00373453
0.00365919
0.00355391
0.00340644
0.00321002
0.00296915
0.00269909
0.00241761
0.00214789
0.00191447
0.00174516
0.00165198
0.00165312
0.00174199
0.00188659
0.00203719
0.00216267
0.00226702
0.00235452
0.00242389
0.00247317
0.00250532
0.00252373
0.00253045
0.00252569
0.00250631
0.00246383
0.00238652
0.00225896
0.00206665
0.00353294
0.00350137
0.00344034
0.00334354
0.00320698
0.00303665
0.00284583
0.00264863
0.00245924
0.00229004
0.00215812
0.00207429
0.00205863
0.00210525
0.00219526
0.00229185
0.0023712
0.00243938
0.00249841
0.00254096
0.00256824
0.00258224
0.00258504
0.00257701
0.00255744
0.00252478
0.00247291
0.00239013
0.00226284
0.0020717
0.00337454
0.00336428
0.00335171
0.003314
0.00324673
0.00315145
0.00303405
0.00290964
0.00278548
0.00266838
0.00257047
0.00250312
0.0024787
0.00249486
0.00253965
0.00259391
0.00263977
0.00268376
0.00272364
0.00275506
0.00277844
0.00279465
0.00280443
0.00280747
0.00280204
0.00278608
0.00275522
0.00269873
0.00260848
0.00247036
0.00329279
0.00329983
0.00330544
0.00329203
0.00325968
0.00321229
0.00315063
0.00307879
0.00300273
0.00292677
0.00286177
0.00281273
0.00278472
0.00277962
0.00279131
0.00281651
0.00284188
0.00286872
0.00289719
0.00292549
0.00295233
0.00297751
0.0030006
0.00302137
0.00303812
0.00305052
0.00305597
0.00304438
0.00301797
0.00297199
0.000217498
0.00022647
0.000223683
0.000218185
0.000210806
0.000202339
0.000193415
0.000184483
0.000175803
0.000167589
0.000159914
0.000152912
0.000146579
0.000141159
0.000136729
0.000133648
0.000132031
0.00013245
0.000135044
0.000138727
0.000141496
0.000141797
0.000138618
0.000131447
0.000120264
0.000105196
8.65469e-05
0.000363331
8.4366e-05
8.94964e-05
0.000885569
0.00102837
0.00104151
0.000994261
0.000928878
0.000862502
0.000802468
0.000749731
0.000703482
0.000663154
0.000627108
0.000595553
0.000566307
0.000542
0.000520483
0.000504274
0.00049085
0.000487595
0.000491672
0.000502544
0.000515605
0.000525382
0.000520221
0.000493088
0.000447941
0.000389943
0.000327449
0.000327022
0.000360385
0.000378799
0.0013954
0.00164984
0.0017319
0.00171395
0.00164969
0.00156878
0.00148735
0.00141092
0.00134059
0.00127724
0.00121959
0.00116888
0.00112234
0.00108469
0.00105273
0.0010286
0.00100637
0.000995143
0.000986617
0.000983476
0.000984886
0.000984825
0.000959968
0.000907618
0.000823974
0.000713689
0.00059243
0.000494665
0.000480136
0.000552233
0.00172539
0.00204578
0.00218069
0.0022009
0.0021645
0.00209607
0.00201785
0.00193869
0.00186222
0.00179136
0.00172655
0.00167056
0.00162146
0.00158454
0.00155592
0.00153546
0.00151236
0.00149256
0.00146734
0.0014447
0.00142734
0.00141063
0.0013695
0.00129114
0.00117397
0.00102349
0.000855911
0.000694527
0.000602885
0.000627088
0.00189534
0.00221534
0.00240166
0.00249505
0.00250794
0.00246452
0.00240281
0.00233371
0.00226289
0.00219564
0.00213476
0.00208477
0.00204467
0.00202004
0.00200552
0.00199722
0.00197679
0.00194632
0.00190267
0.00186006
0.00182376
0.00178918
0.00173248
0.0016355
0.0014953
0.00131648
0.00111598
0.000910724
0.000757969
0.000722707
0.0020035
0.00230872
0.00252358
0.0026522
0.00270369
0.00270347
0.00266813
0.0026175
0.00256027
0.00250489
0.00245671
0.00242172
0.0024005
0.0023985
0.00240667
0.00241512
0.00239732
0.00235333
0.00229005
0.00222839
0.00217428
0.00212305
0.00205293
0.00194348
0.00178912
0.00159286
0.00136983
0.00113493
0.000938145
0.000849501
0.00205868
0.00233131
0.00255484
0.00271206
0.00280264
0.0028388
0.00283601
0.00280875
0.00277003
0.00273304
0.00270545
0.00269336
0.00269982
0.00272904
0.00276676
0.00279467
0.00277633
0.00271635
0.00263343
0.00255432
0.00248321
0.00241764
0.0023361
0.00221864
0.002057
0.00185206
0.00161624
0.00136235
0.0011347
0.00100199
0.00201327
0.00225554
0.0024924
0.00268074
0.00281176
0.00288659
0.00291813
0.00292122
0.00290882
0.00289786
0.00289178
0.00290974
0.00295113
0.00301876
0.00309311
0.00314046
0.00311698
0.00303935
0.00293818
0.00284328
0.00275651
0.00267852
0.0025874
0.00246499
0.00230097
0.00209407
0.00185514
0.00159092
0.00134226
0.00117092
0.00187368
0.00209462
0.00234518
0.00256807
0.00274377
0.00285908
0.002928
0.00296405
0.00298236
0.00300027
0.00302662
0.00307864
0.00316171
0.00327552
0.00339051
0.00345526
0.00342258
0.00332635
0.00320995
0.00310057
0.0030004
0.00291044
0.00281199
0.00268667
0.00252359
0.00232065
0.00208117
0.00181149
0.00155011
0.00134557
0.00171186
0.00189601
0.00214776
0.00239755
0.00260913
0.00276585
0.00287543
0.00294745
0.00300047
0.00305168
0.00311587
0.00320785
0.00333926
0.00350549
0.00366054
0.0037405
0.00369576
0.00358187
0.00345374
0.00333157
0.00322113
0.00312046
0.00301533
0.00288808
0.00272787
0.0025307
0.00229226
0.00202248
0.00175438
0.00152357
0.00155501
0.0016819
0.0019164
0.00218198
0.00242524
0.00262083
0.00276889
0.00287935
0.00297049
0.00305983
0.00316547
0.00330214
0.00348241
0.00371166
0.00390536
0.00399676
0.0039394
0.00381039
0.00367436
0.00354154
0.00342318
0.00331344
0.00320232
0.00307336
0.00291822
0.0027231
0.00248906
0.00222453
0.00195361
0.00170193
0.00143037
0.00147945
0.00167312
0.00193754
0.00220372
0.00243391
0.00261998
0.0027696
0.00289969
0.00303044
0.00318127
0.00336757
0.00361015
0.00389763
0.00412577
0.00422417
0.00415652
0.00401664
0.00387592
0.00373546
0.00360927
0.00349372
0.0033775
0.0032462
0.00309267
0.00290186
0.00267366
0.00241564
0.00214602
0.00188137
0.00135759
0.00132256
0.00145072
0.00168871
0.00196155
0.00221762
0.00243833
0.00262653
0.00279694
0.00297004
0.00316887
0.00340896
0.0037197
0.00406499
0.00432154
0.00442357
0.00434957
0.00420444
0.00406216
0.00391778
0.00378552
0.00366677
0.00354531
0.00341271
0.0032578
0.00307038
0.00284831
0.00259807
0.00232903
0.00205928
0.00137714
0.001259
0.00129712
0.0014745
0.00172616
0.00199096
0.0022373
0.00246003
0.00266997
0.00288678
0.00313348
0.00343114
0.00381329
0.0042156
0.00449146
0.00459558
0.00452086
0.00437669
0.004236
0.00409079
0.0039574
0.00383305
0.00370752
0.00357288
0.00341694
0.00323215
0.00301623
0.00277152
0.00250225
0.00222741
0.00148479
0.00131882
0.00126373
0.00135123
0.00154091
0.00178423
0.00203718
0.00228365
0.00252828
0.00278746
0.00308184
0.00343999
0.00389066
0.00433835
0.00463285
0.00474045
0.00467203
0.00453506
0.00439971
0.00425699
0.00412277
0.00399504
0.0038675
0.00373013
0.00357351
0.00339109
0.00317987
0.00293597
0.00266575
0.00238555
0.00171492
0.00152026
0.00139627
0.00136783
0.00146252
0.0016426
0.00186817
0.00211694
0.0023844
0.00268014
0.00302053
0.0034431
0.00395067
0.00442839
0.00474251
0.00485765
0.00480321
0.00467942
0.00455395
0.00441792
0.00428327
0.00415546
0.00402831
0.00388982
0.00373165
0.00355059
0.00333919
0.00309304
0.00282011
0.00253413
0.00206617
0.00185896
0.00168968
0.00157379
0.001539
0.00160738
0.00177045
0.00198576
0.00225434
0.00257388
0.00295881
0.00343986
0.00398997
0.00448841
0.00482062
0.00494516
0.00491211
0.00480731
0.00469612
0.00457079
0.00444146
0.00431712
0.00419481
0.00405826
0.00389491
0.00371031
0.00349346
0.00324318
0.00296583
0.00267327
0.0025144
0.00230336
0.00210494
0.00192487
0.00178525
0.00172249
0.00175932
0.00191838
0.0021562
0.00248126
0.00290392
0.00342733
0.00400185
0.00450923
0.00485526
0.00499766
0.00499284
0.00491293
0.00482014
0.00470457
0.00458617
0.00447012
0.00435285
0.00421994
0.00405708
0.00386509
0.00364193
0.00338621
0.00310308
0.00280313
0.0030163
0.00280442
0.00258627
0.00236231
0.00214641
0.0019714
0.00188328
0.00191812
0.00210481
0.00241453
0.00285488
0.00339515
0.00397607
0.00449391
0.0048413
0.00500551
0.00503443
0.00498481
0.00491463
0.0048128
0.00470346
0.00459339
0.00448095
0.00435347
0.00420075
0.00400707
0.00378036
0.0035201
0.00323111
0.00292359
0.00352396
0.00331049
0.00307842
0.0028251
0.0025581
0.00230166
0.00210301
0.00202125
0.00209669
0.00236186
0.00279713
0.00333579
0.00389888
0.00438894
0.00476037
0.00495123
0.00501804
0.00500235
0.00495811
0.0048758
0.00478062
0.00468074
0.0045744
0.00445212
0.00430477
0.00412287
0.00390014
0.00363966
0.00334723
0.00303348
0.00399216
0.00377603
0.00353413
0.00326191
0.00296258
0.00265244
0.0023713
0.00218221
0.00214654
0.00232207
0.00268487
0.00318352
0.00372534
0.00422309
0.00458948
0.0048082
0.00491581
0.0049329
0.0049165
0.0048614
0.00478754
0.00470469
0.00461273
0.00450312
0.00436412
0.00419394
0.00398536
0.00373359
0.00344439
0.0031288
0.0043811
0.00416313
0.00391547
0.00363245
0.00331442
0.00297173
0.00263525
0.00236156
0.00222296
0.00227685
0.00257185
0.00300995
0.0034983
0.00395435
0.00430851
0.00454838
0.00469407
0.00474535
0.00476002
0.00473956
0.00469557
0.00463867
0.00457032
0.00448366
0.0043631
0.00420957
0.0040121
0.00377737
0.00350596
0.0031986
0.00465757
0.00444137
0.00419342
0.00390714
0.00358108
0.00322154
0.00285189
0.00251856
0.00228908
0.00222761
0.00239495
0.002753
0.00317705
0.0035861
0.00392404
0.00417962
0.00435271
0.00443637
0.00448257
0.00449902
0.00448872
0.00446282
0.00442396
0.00436695
0.00427903
0.00414686
0.00397805
0.00376281
0.003501
0.00321241
0.00479753
0.0045903
0.00435022
0.00406987
0.00374653
0.00338431
0.00300162
0.00263572
0.00234302
0.00218712
0.00221634
0.00245337
0.00281152
0.0031798
0.00349718
0.00376025
0.00394045
0.00404837
0.00412044
0.00416617
0.00418385
0.00418449
0.00417172
0.00414225
0.00408643
0.00399071
0.00384636
0.00366323
0.00344222
0.0031793
0.00479419
0.00460746
0.00438799
0.00412708
0.00382137
0.00347484
0.00310419
0.00274039
0.00242828
0.00222106
0.00214974
0.00227018
0.00253428
0.0028608
0.00314942
0.00339902
0.00356646
0.00367943
0.00376507
0.00382145
0.00385081
0.00386247
0.00386074
0.00384411
0.00380597
0.00373561
0.00362345
0.00346136
0.0032645
0.00303877
0.00467371
0.00452384
0.0043435
0.00412116
0.00385379
0.00354744
0.00321961
0.00289661
0.00261246
0.0024044
0.00228861
0.00232701
0.00249816
0.00275064
0.00299962
0.00320755
0.00334701
0.00344512
0.00352536
0.00357395
0.00359805
0.0036043
0.00359662
0.00357459
0.00353407
0.00346687
0.00336453
0.00322043
0.00303081
0.00280112
0.00451071