/*--------------------------------*- C++ -*----------------------------------*\
| =========                 |                                                 |
| \\      /  F ield         | OpenFOAM: The Open Source CFD Toolbox           |
|  \\    /   O peration     | Version:  5.0                                   |
|   \\  /    A nd           | Web:      www.OpenFOAM.org                      |
|    \\/     M anipulation  |                                                 |
\*---------------------------------------------------------------------------*/
FoamFile
{
    version     2.0;
    format      ascii;
    class       volScalarField;
    location    "1350/air";
    object      epsilon;
}
// * * * * * * * * * * * * * * * * * * * * * * * * * * * * * * * * * * * * * //

dimensions      [0 2 -3 0 0 0 0];

internalField   nonuniform List<scalar> 
243000
(
2.66486
3.41523
3.81167
4.06343
4.17898
4.18543
4.10607
3.96256
3.77304
3.55259
3.30925
3.05255
2.78643
2.52497
2.27805
2.06387
1.89217
1.83479
1.77895
1.66026
1.55576
1.43315
1.27459
1.09525
1.00039
0.860909
0.17248
0.149795
0.120181
0.103548
1.34364
1.65036
1.74724
1.76623
1.73424
1.66774
1.57999
1.48082
1.37675
1.27182
1.16808
1.06802
0.97286
0.88684
0.812011
0.753076
0.711402
0.691081
0.684313
0.680832
0.670169
0.645509
0.601554
0.539719
0.467556
0.39085
0.317786
0.247429
0.18541
0.153736
1.63494
1.99357
2.13334
2.17321
2.14524
2.07317
1.97284
1.85649
1.73233
1.60598
1.48049
1.35995
1.24632
1.14549
1.06024
0.996855
0.956522
0.941426
0.941146
0.943111
0.933171
0.902459
0.845245
0.762609
0.663053
0.555896
0.449773
0.346518
0.256956
0.194023
1.71055
2.11104
2.31411
2.39192
2.39061
2.33511
2.24238
2.12657
1.99775
1.8634
1.72804
1.59755
1.47495
1.368
1.28047
1.22041
1.18859
1.18499
1.19439
1.20148
1.19041
1.15209
1.08152
0.980187
0.857389
0.723449
0.588299
0.454727
0.338917
0.251937
1.65119
2.0568
2.31327
2.45229
2.49734
2.47317
2.40234
2.30029
2.17898
2.04768
1.91257
1.78125
1.65815
1.55296
1.47047
1.42063
1.40328
1.41505
1.436
1.44819
1.43489
1.38808
1.30448
1.18651
1.04387
0.887436
0.727995
0.568668
0.427343
0.318856
1.50354
1.90523
2.20742
2.39775
2.49088
2.50832
2.46889
2.38996
2.28536
2.16566
2.0389
1.91429
1.79782
1.701
1.62987
1.59613
1.59793
1.6278
1.66138
1.67849
1.66243
1.60684
1.51081
1.37816
1.21884
1.04393
0.864627
0.684219
0.519156
0.390722
1.29962
1.69272
2.0236
2.25784
2.39914
2.46074
2.45932
2.40977
2.32694
2.22507
2.1133
2.00138
1.89722
1.81426
1.7597
1.74705
1.77126
1.82113
1.86787
1.88978
1.87082
1.80668
1.69907
1.55353
1.38036
1.19058
0.995307
0.79798
0.612095
0.465209
1.08611
1.46073
1.79618
2.06168
2.24426
2.3488
2.38629
2.37089
2.31649
2.23684
2.14256
2.04778
1.96032
1.89555
1.86181
1.87409
1.92307
1.99399
2.05405
2.08073
2.05907
1.98701
1.86887
1.71214
1.52752
1.32598
1.11814
0.907638
0.705127
0.540919
0.894908
1.24223
1.57328
1.84583
2.05097
2.1911
2.26522
2.28445
2.26062
2.20692
2.13516
2.05957
1.99144
1.94812
1.93835
1.97829
2.05369
2.14599
2.21931
2.25081
2.22693
2.14789
2.0205
1.85423
1.66026
1.44951
1.23199
1.01154
0.795559
0.616215
0.749031
1.03632
1.35764
1.63759
1.85604
2.01173
2.11279
2.16288
2.16964
2.14352
2.09599
2.04225
1.99521
1.97514
1.99174
2.06078
2.16375
2.27723
2.3635
2.39995
2.37459
2.28975
2.1546
1.98039
1.77895
1.56117
1.3369
1.10779
0.881073
0.68981
0.675283
0.856305
1.14868
1.43141
1.66397
1.83685
1.954
2.02147
2.05433
2.05474
2.03181
2.00089
1.97601
1.98015
2.02417
2.123
2.25367
2.38804
2.48682
2.52842
2.50252
2.41325
2.27196
2.09144
1.88426
1.66161
1.43147
1.19524
0.960213
0.760174
0.703503
0.739531
0.958349
1.22743
1.47074
1.66166
1.79717
1.88225
1.92969
1.94968
1.94918
1.94039
1.93788
1.96606
2.03781
2.16632
2.32397
2.47885
2.58964
2.63668
2.61131
2.5192
2.37349
2.18833
1.9771
1.75075
1.51566
1.27401
1.03357
0.826619
0.866455
0.746108
0.827133
1.03866
1.27779
1.48373
1.63901
1.74366
1.80765
1.8409
1.85546
1.86589
1.88433
1.93587
2.0347
2.19199
2.37533
2.5499
2.67248
2.72533
2.70171
2.60844
2.46011
2.27194
2.05844
1.82899
1.59001
1.34401
1.10156
0.889158
1.11233
0.930655
0.820581
0.906782
1.09974
1.30617
1.4784
1.60361
1.68602
1.73436
1.76053
1.783
1.81906
1.89236
2.01679
2.20117
2.40844
2.60144
2.73591
2.79504
2.77449
2.68181
2.53256
2.34361
2.12856
1.89706
1.65499
1.4054
1.16362
0.947414
1.39155
1.21965
0.996517
0.896512
0.976623
1.14423
1.31942
1.46203
1.56352
1.62845
1.66779
1.69886
1.74624
1.83817
1.98581
2.19499
2.42347
2.63383
2.78039
2.84648
2.83039
2.73997
2.59201
2.40383
2.18839
1.95572
1.71127
1.45877
1.21973
1.00117
1.70553
1.53824
1.31935
1.07355
0.969307
1.03442
1.17655
1.32319
1.44061
1.52246
1.57611
1.6174
1.67026
1.77603
1.94347
2.17446
2.42347
2.64768
2.80594
2.88046
2.87017
2.78394
2.63969
2.45331
2.23869
2.00568
1.75958
1.50707
1.27079
1.05063
2.05562
1.88599
1.6694
1.38023
1.12772
1.02662
1.07962
1.19939
1.32115
1.41703
1.48505
1.5377
1.59781
1.70899
1.89154
2.14068
2.40639
2.64616
2.81447
2.8978
2.89473
2.81503
2.67564
2.49276
2.28023
2.04773
1.80084
1.55275
1.31816
1.0964
2.44321
2.26342
2.03929
1.75589
1.42462
1.16367
1.06817
1.11324
1.21448
1.31517
1.39519
1.45938
1.52786
1.64008
1.83199
2.0949
2.37449
2.62683
2.80746
2.90022
2.90532
2.8336
2.70076
2.52309
2.31399
2.08301
1.83615
1.59477
1.36213
1.13888
2.86783
2.67085
2.43134
2.14078
1.78589
1.42542
1.17293
1.09309
1.13639
1.22339
1.30868
1.38283
1.45994
1.57526
1.7675
2.0387
2.32873
2.59186
2.78362
2.88737
2.90202
2.84002
2.71607
2.54544
2.34122
2.11278
1.87095
1.63431
1.40321
1.17842
3.3282
3.10762
2.84622
2.5369
2.1722
1.76313
1.38874
1.16203
1.1061
1.15186
1.2297
1.30929
1.39422
1.51364
1.7011
1.97413
2.27059
2.54266
2.74504
2.86061
2.88684
2.8355
2.72276
2.56128
2.36344
2.13862
1.90461
1.67209
1.44198
1.2154
3.82185
3.57216
3.28389
2.95162
2.5745
2.13777
1.68462
1.32294
1.14005
1.11295
1.1645
1.24132
1.33146
1.45491
1.63951
1.90442
2.20223
2.48049
2.69264
2.82066
2.86026
2.82208
2.72122
2.57111
2.3816
2.16368
1.93752
1.70873
1.4791
1.25032
4.345
4.06204
3.74491
3.3987
2.99767
2.53329
2.02745
1.56007
1.24437
1.11774
1.12059
1.1827
1.27303
1.39913
1.58178
1.83534
2.12647
2.4069
2.62725
2.76776
2.82241
2.79937
2.71254
2.57554
2.3967
2.19008
1.97111
1.74537
1.51548
1.28384
4.89564
4.57826
4.24056
3.8716
3.43999
2.94387
2.39635
1.84983
1.41373
1.17269
1.10552
1.13838
1.2216
1.34751
1.52806
1.77257
2.05363
2.32763
2.55094
2.70263
2.77326
2.76684
2.69702
2.57476
2.41142
2.21798
2.00642
1.78352
1.55247
1.31695
5.47805
5.1453
4.78555
4.37313
3.90161
3.36913
2.78112
2.17358
1.63723
1.28004
1.12637
1.1144
1.18134
1.30286
1.48025
1.71723
1.98975
2.25826
2.48392
2.64427
2.72934
2.73944
2.68647
2.57959
2.43092
2.24975
2.04547
1.82505
1.59228
1.35156
6.1249
5.76344
5.34749
4.88903
4.37855
3.80954
3.1843
2.52737
1.90987
1.44357
1.19267
1.12121
1.16101
1.273
1.446
1.67684
1.94169
2.20553
2.433
2.60165
2.70025
2.72622
2.6879
2.59601
2.46059
2.2903
2.09275
1.87404
1.63818
1.39035
6.68492
6.31037
5.87899
5.40301
4.87251
4.28095
3.62902
2.93409
2.25134
1.6858
1.33097
1.18603
1.18612
1.28357
1.4523
1.67982
1.94099
2.20234
2.43147
2.60568
2.71221
2.75033
2.7254
2.64514
2.51963
2.35723
2.16412
1.94471
1.70178
1.4412
7.26127
6.88312
6.46174
5.98895
5.45691
4.86035
4.19788
3.48037
2.74875
2.09595
1.63272
1.3988
1.3475
1.42609
1.59481
1.82483
2.08505
2.3437
2.57039
2.7443
2.8526
2.89414
2.87319
2.79576
2.67141
2.50801
2.31033
2.08199
1.82385
1.53865
8.10324
7.72207
7.30649
6.85066
6.34717
5.78591
5.15691
4.4601
3.71967
3.00851
2.44624
2.1174
2.00956
2.07142
2.25162
2.49429
2.75298
3.00167
3.21141
3.36337
3.44821
3.46644
3.42106
3.3184
3.16695
2.97399
2.74484
2.47989
2.17591
1.82766
9.86221
9.52376
9.19344
8.86469
8.52225
8.14036
7.68927
7.15375
6.53579
5.87581
5.29834
4.92943
4.79268
4.85393
5.04722
5.29099
5.51662
5.70942
5.84583
5.91405
5.91428
5.84499
5.71153
5.51832
5.2669
4.9612
4.62138
4.23684
3.79988
3.29377
17.4396
17.3931
17.4886
17.5685
17.6069
17.5776
17.4562
17.2382
16.8985
16.4027
15.9405
15.612
15.4252
15.383
15.4312
15.553
15.6428
15.7395
15.8165
15.8853
15.9384
15.9733
15.9781
15.9411
15.7857
15.4782
15.1861
14.7827
14.2592
13.6228
4.7669
6.40249
7.32531
7.90565
8.20286
8.27385
8.16752
7.92883
7.58988
7.17978
6.71733
6.23072
5.73344
5.26183
4.8342
4.48706
4.2264
4.0613
3.96289
3.86671
3.6769
3.33114
2.82459
2.21495
1.59792
1.05397
0.1703
0.149534
0.128333
0.475623
3.08343
3.68799
4.10779
4.36675
4.48588
4.49105
4.40188
4.24297
4.03575
3.79769
3.5434
3.28599
3.03692
2.80986
2.61869
2.47787
2.39257
2.36468
2.3841
2.40814
2.37072
2.22505
1.9659
1.62049
1.24085
0.88032
0.553346
0.311966
0.24934
0.228469
2.67944
3.13587
3.45062
3.64532
3.73826
3.7477
3.68481
3.5648
3.40347
3.21513
3.01274
2.80836
2.61235
2.43802
2.29714
2.20452
2.16203
2.16867
2.21369
2.26151
2.25553
2.15475
1.94615
1.65295
1.31867
0.983946
0.681816
0.428747
0.303409
0.264506
2.38086
2.78107
3.07736
3.26792
3.37056
3.40082
3.36685
3.27978
3.15286
2.9987
2.82929
2.65668
2.49074
2.34609
2.23479
2.17155
2.15592
2.18397
2.24062
2.2936
2.2957
2.20918
2.02305
1.75453
1.43945
1.11285
0.807783
0.539208
0.368611
0.27993
2.08379
2.43924
2.74062
2.95021
3.07811
3.13577
3.13233
3.07643
2.98047
2.85651
2.71595
2.57094
2.43126
2.31316
2.22847
2.19218
2.20144
2.24855
2.31427
2.36779
2.36925
2.28639
2.11047
1.85641
1.55522
1.23587
0.929443
0.650223
0.448428
0.321309
1.75431
2.08493
2.40207
2.63759
2.79551
2.88306
2.90915
2.88329
2.81675
2.72164
2.60907
2.49117
2.37808
2.28676
2.22944
2.22116
2.25572
2.32177
2.39601
2.44859
2.446
2.36189
2.19074
1.94732
1.6569
1.34536
1.04114
0.756979
0.534966
0.380399
1.39588
1.71518
2.05577
2.31925
2.50834
2.6253
2.67912
2.682
2.64371
2.57673
2.49202
2.40155
2.316
2.25268
2.22417
2.24521
2.30609
2.39112
2.47349
2.52462
2.51671
2.42901
2.25983
2.02413
1.74327
1.44069
1.14137
0.857053
0.622886
0.44901
1.0634
1.3598
1.7097
2.00267
2.21771
2.36129
2.44003
2.46855
2.45801
2.41867
2.36156
2.29875
2.24143
2.20747
2.20908
2.26042
2.34797
2.45199
2.54184
2.59141
2.57791
2.4857
2.3179
2.08747
1.81522
1.52219
1.23015
0.94935
0.708938
0.522032
0.839746
1.09038
1.41785
1.71299
1.93728
2.09902
2.19425
2.24432
2.2605
2.24846
2.21902
2.18389
2.15518
2.15153
2.18363
2.26601
2.37991
2.50221
2.59897
2.64699
2.62811
2.5314
2.36422
2.13852
1.87443
1.59131
1.30775
1.033
0.79148
0.5963
0.686364
0.882438
1.17524
1.46885
1.69743
1.85786
1.95396
2.016
2.05268
2.06776
2.06708
2.05963
2.05969
2.08572
2.14902
2.26239
2.40154
2.54066
2.64392
2.69039
2.66654
2.56707
2.39987
2.17871
1.9227
1.64969
1.37532
1.10795
0.869042
0.669809
0.601215
0.72459
0.97274
1.25274
1.48672
1.65197
1.74511
1.8032
1.85099
1.88506
1.90898
1.92925
1.95707
2.01221
2.10674
2.2503
2.4125
2.56685
2.67592
2.72112
2.69311
2.59208
2.42568
2.20949
1.96181
1.69895
1.43399
1.17476
0.940811
0.741499
0.590046
0.626405
0.807085
1.05816
1.29167
1.46655
1.56603
1.62594
1.67431
1.71504
1.75377
1.79636
1.85028
1.93334
2.05835
2.23059
2.41507
2.5804
2.6943
2.73905
2.7089
2.60655
2.4424
2.23217
1.99337
1.74058
1.48494
1.23424
1.00688
0.809836
0.665859
0.612535
0.693323
0.890812
1.11058
1.29192
1.40481
1.47417
1.52542
1.56761
1.61124
1.66682
1.74244
1.85154
2.00536
2.20402
2.40831
2.58423
2.70044
2.74437
2.71171
2.60984
2.45061
2.24794
2.01869
1.77571
1.52923
1.28733
1.06762
0.874437
0.802452
0.715743
0.682039
0.776134
0.955562
1.12991
1.25433
1.33911
1.39697
1.44168
1.48728
1.54725
1.63637
1.76922
1.94914
2.17129
2.39137
2.57721
2.69592
2.73814
2.70412
2.60418
2.45064
2.25767
2.03854
1.80529
1.56795
1.33552
1.12369
0.935235
0.992126
0.899396
0.809829
0.775564
0.856832
0.995052
1.11935
1.21561
1.28208
1.33135
1.37967
1.44118
1.53717
1.6884
1.89086
2.13311
2.36596
2.55766
2.67835
2.7212
2.68868
2.59219
2.44552
2.26243
2.05368
1.83024
1.60222
1.3804
1.17588
0.992349
1.23758
1.14142
1.03811
0.922244
0.870263
0.919965
1.01311
1.10389
1.17718
1.23257
1.28485
1.34886
1.44649
1.61069
1.83167
2.09036
2.33312
2.52896
2.65121
2.69499
2.66601
2.57523
2.43664
2.26333
2.06506
1.85164
1.63375
1.4223
1.22465
1.04592
1.54178
1.43822
1.32665
1.17702
1.02485
0.945838
0.959064
1.01777
1.08536
1.14462
1.20121
1.26846
1.36872
1.53836
1.77299
2.04444
2.29462
2.49336
2.6168
2.66379
2.63874
2.5553
2.42566
2.26209
2.07415
1.87091
1.66439
1.46215
1.27054
1.09608
1.90653
1.78834
1.6626
1.4974
1.29094
1.09844
0.992521
0.979593
1.01677
1.07012
1.12858
1.19898
1.30329
1.4741
1.71715
1.99779
2.25354
2.45454
2.58004
2.6305
2.61078
2.53574
2.4153
2.26091
2.08302
1.89164
1.69507
1.50078
1.31416
1.14318
2.31723
2.18676
2.04192
1.85922
1.62363
1.35725
1.13294
1.01304
0.988299
1.01631
1.0692
1.14109
1.25009
1.42266
1.66836
1.95509
2.2153
2.41874
2.54673
2.60121
2.58841
2.52166
2.40916
2.26346
2.09688
1.91585
1.72774
1.53957
1.35648
1.1879
2.77878
2.63105
2.4671
2.26286
2.00265
1.68893
1.3721
1.13505
1.01804
0.995043
1.02869
1.09773
1.21136
1.38924
1.63536
1.92577
2.19039
2.39737
2.52852
2.58745
2.5819
2.52036
2.41805
2.28241
2.12353
1.94973
1.76642
1.58126
1.39936
1.23153
3.3016
3.13572
2.95192
2.72176
2.4322
2.07862
1.69223
1.34896
1.12238
1.02292
1.01794
1.07619
1.19369
1.38023
1.63564
1.93016
2.20125
2.41311
2.54825
2.6129
2.61697
2.56355
2.46691
2.33604
2.1807
2.00654
1.82009
1.63172
1.44653
1.27649
3.90595
3.72525
3.5206
3.2611
2.93581
2.54001
2.09389
1.65893
1.31926
1.12263
1.05811
1.0928
1.21384
1.41805
1.69629
2.01018
2.29611
2.5161
2.65674
2.72475
2.73097
2.67711
2.57791
2.44414
2.28438
2.10219
1.90567
1.70443
1.50641
1.32737
4.63262
4.44521
4.21862
3.92805
3.56469
3.12406
2.61984
2.10086
1.64862
1.33814
1.19391
1.18953
1.31495
1.55201
1.87701
2.23594
2.55216
2.78727
2.93508
3.0008
2.9981
2.92963
2.8112
2.65605
2.47296
2.26726
2.04603
1.81958
1.5978
1.39715
5.56948
5.37708
5.13667
4.82306
4.42952
3.95115
3.39408
2.79604
2.23075
1.79086
1.54381
1.48705
1.62031
1.91977
2.33821
2.78623
3.1589
3.42228
3.57515
3.62552
3.58735
3.47072
3.29457
3.07797
2.83487
2.57321
2.29939
2.02294
1.75155
1.50844
6.90079
6.71352
6.47627
6.16524
5.77529
5.29774
4.72521
4.07855
3.41783
2.8465
2.48214
2.36706
2.52961
2.94958
3.55262
4.16151
4.62764
4.93128
5.06791
5.05181
4.90233
4.65125
4.33114
3.97008
3.58924
3.20135
2.8126
2.4303
2.0598
1.72423
9.07688
8.9303
8.74846
8.51197
8.22064
7.85832
7.39483
6.82744
6.18827
5.58187
5.1755
5.07113
5.35276
6.01749
6.94316
7.80095
8.37533
8.67009
8.68746
8.44428
7.99632
7.40926
6.74321
6.04189
5.33999
4.65927
4.00536
3.38093
2.78392
2.24275
13.2658
13.2426
13.2371
13.2497
13.2933
13.3358
13.2947
13.1485
12.8908
12.6193
12.5265
12.7684
13.4461
14.5716
15.9304
17.0329
17.6258
17.7369
17.3527
16.5367
15.4048
14.0784
12.6611
11.2158
9.79762
8.44765
7.17499
5.96838
4.81588
3.75713
22.2207
22.4163
22.7922
23.3326
24.091
24.9867
25.8288
26.5703
27.1664
27.7646
28.5408
29.6349
31.0505
32.7669
34.4137
35.5437
35.9877
35.719
34.6837
33.0246
30.9199
28.5354
26.0191
23.4343
20.8371
18.2983
15.844
13.4334
11.0532
8.79026
36.8802
37.2856
38.3521
39.8069
41.6494
43.5318
45.1487
46.4758
47.5018
48.6224
50.0047
51.6864
53.4314
55.1684
56.3813
56.9608
57.0214
56.4529
55.1928
53.3665
51.1266
48.6238
45.9743
43.2026
40.2855
37.1913
33.9568
30.539
26.9353
23.3114
42.7833
43.1873
44.7992
46.7077
48.3149
49.3964
50.0779
50.5112
50.8878
51.4308
52.3162
53.4807
54.57
55.4508
55.5808
55.1698
54.8212
54.229
53.4353
52.4545
51.3745
50.2991
49.2848
48.3621
47.4669
46.397
45.1296
43.747
42.1566
40.4331
7.41097
9.74772
10.9014
11.6871
12.1056
12.2083
12.0613
11.7271
11.2509
10.6757
10.0268
9.34486
8.64336
7.97858
7.37396
6.8882
6.53175
6.37722
6.42916
6.52855
6.39914
5.87183
4.9413
3.75457
2.53809
1.48792
0.739523
0.145687
0.551447
0.524536
4.49073
5.1981
5.61367
5.90509
6.04683
6.05184
5.94035
5.74195
5.48266
5.18371
4.86346
4.53634
4.21838
3.92287
3.67356
3.48729
3.38409
3.40148
3.568
3.78362
3.86754
3.70367
3.28387
2.68655
2.00075
1.32643
0.76382
0.374118
0.301469
0.24536
4.03684
4.53205
4.85669
5.05831
5.14265
5.12924
5.02914
4.86051
4.64193
4.39018
4.12098
3.84756
3.5848
3.34685
3.15269
3.01944
2.9588
3.00246
3.17256
3.39155
3.51105
3.42905
3.13731
2.65766
2.0795
1.48039
0.941576
0.526463
0.343935
0.27858
3.73392
4.15312
4.46941
4.67389
4.77014
4.77672
4.70237
4.56287
4.37447
4.15251
3.91187
3.66596
3.42987
3.22078
3.05645
2.95354
2.9192
2.98018
3.1453
3.34593
3.46099
3.40129
3.14946
2.73438
2.21452
1.65169
1.12044
0.674975
0.41482
0.294817
3.42774
3.76984
4.09357
4.33104
4.46592
4.50802
4.469
4.36256
4.20559
4.01346
3.80072
3.58105
3.37131
3.19063
3.05605
2.98358
2.97815
3.05927
3.22147
3.4001
3.4961
3.43606
3.20205
2.82125
2.33915
1.80608
1.28482
0.822931
0.509505
0.338825
3.0714
3.34502
3.67953
3.95497
4.1369
4.22251
4.22453
4.15526
4.03304
3.87396
3.69263
3.50336
3.32414
3.17555
3.0749
3.03828
3.06615
3.17042
3.33189
3.48848
3.55988
3.48772
3.25885
2.89785
2.44334
1.9368
1.4308
0.964541
0.617341
0.404067
2.67301
2.8912
3.22973
3.53901
3.76713
3.89827
3.94187
3.9133
3.82921
3.70681
3.56122
3.40715
3.26368
3.15286
3.09174
3.09653
3.16184
3.29106
3.45282
3.5878
3.63266
3.54172
3.31067
2.96135
2.52795
2.0454
1.55707
1.09611
0.729677
0.483469
2.22027
2.40902
2.7559
3.09284
3.36198
3.53595
3.62021
3.63272
3.58925
3.50666
3.40046
3.28602
3.18411
3.11673
3.10033
3.1512
3.25736
3.41179
3.57334
3.68696
3.7047
3.59211
3.35445
3.01193
2.59535
2.1346
1.6651
1.21475
0.841248
0.570954
1.75663
1.92574
2.27286
2.63053
2.93763
3.14733
3.26913
3.3195
3.31725
3.2762
3.21225
3.14126
3.08577
3.06722
3.09981
3.20063
3.34907
3.52774
3.68725
3.7797
3.76994
3.63654
3.38933
3.05064
2.64809
2.20721
1.7567
1.32022
0.947272
0.662282
1.38409
1.5152
1.84038
2.20133
2.51854
2.75019
2.90343
2.98687
3.02195
3.02249
3.00209
2.97741
2.97252
3.00582
3.09175
3.24494
3.43527
3.63541
3.79025
3.86181
3.82402
3.67097
3.41464
3.07879
2.6886
2.26596
1.83395
1.41319
1.04567
0.752203
1.10165
1.18028
1.46281
1.80995
2.1291
2.37429
2.54366
2.65
2.71749
2.7552
2.77753
2.80065
2.8477
2.93568
3.07814
3.28474
3.51472
3.732
3.87916
3.92985
3.86542
3.69446
3.43049
3.0979
2.71929
2.31327
1.89902
1.49479
1.13568
0.838674
0.913431
0.926723
1.1452
1.46035
1.77155
2.024
2.20633
2.33066
2.41898
2.48666
2.54742
2.61675
2.71575
2.86104
3.06134
3.32063
3.58625
3.81511
3.95187
3.98151
3.89485
3.70693
3.43729
3.10935
2.74196
2.35146
1.95431
1.56655
1.21726
0.920487
0.81664
0.765247
0.900778
1.16069
1.44994
1.70217
1.8946
2.03413
2.14023
2.22933
2.32089
2.43225
2.58147
2.78571
3.04351
3.35305
3.64875
3.88329
4.00726
4.01567
3.9099
3.70732
3.43509
3.11417
2.75831
2.38274
2.00208
1.63187
1.2912
0.996814
0.818439
0.721496
0.761123
0.932836
1.17647
1.41522
1.61194
1.76387
1.88522
1.99264
2.10719
2.25322
2.45001
2.71313
3.02651
3.38237
3.70161
3.93614
4.04587
4.03421
3.90978
3.69957
3.42796
3.11404
2.77029
2.4093
2.04571
1.69064
1.35797
1.06725
0.888215
0.780784
0.747824
0.817157
0.978365
1.17846
1.36616
1.52384
1.65699
1.77976
1.91426
2.08469
2.32642
2.64598
3.01204
3.40929
3.74535
3.97505
4.06975
4.03972
3.90172
3.687
3.4183
3.1122
2.78034
2.43483
2.08769
1.74332
1.41809
1.13172
1.0422
0.931573
0.864924
0.8417
0.897716
1.02033
1.17278
1.32161
1.45937
1.59343
1.74457
1.93683
2.21511
2.58699
3.00223
3.4355
3.78254
4.00411
4.08381
4.0371
3.89054
3.67396
3.40989
3.11164
2.79317
2.4641
2.12828
1.79162
1.47243
1.19051
1.28904
1.17122
1.08428
1.00711
0.959452
0.975602
1.05669
1.17076
1.29889
1.43703
1.6005
1.81343
2.11986
2.53995
2.99842
3.46512
3.81925
4.03136
4.0977
4.03702
3.8833
3.66669
3.40751
3.1216
2.81776
2.49895
2.16839
1.83687
1.52202
1.24405
1.63414
1.49992
1.39092
1.27739
1.15797
1.06608
1.04134
1.09038
1.18614
1.31618
1.48568
1.71901
2.05323
2.51151
3.01162
3.50746
3.86737
4.07078
4.12732
4.06095
3.90239
3.68664
3.43713
3.1594
2.85988
2.54143
2.21104
1.88103
1.56824
1.29318
2.08074
1.9195
1.77991
1.63106
1.46009
1.28267
1.1481
1.09772
1.13542
1.23975
1.4083
1.66035
2.02102
2.50393
3.05386
3.58055
3.94904
4.14687
4.19906
4.13304
3.98003
3.7744
3.52704
3.24341
2.92883
2.59904
2.2611
1.92732
1.61323
1.33927
2.63831
2.43903
2.25875
2.06762
1.84914
1.60478
1.37314
1.21442
1.16354
1.21943
1.37664
1.64022
2.03504
2.56256
3.15762
3.7204
4.10538
4.30554
4.36179
4.30622
4.15778
3.94689
3.6858
3.38279
3.04503
2.68602
2.32792
1.98172
1.66083
1.38478
3.32619
3.08009
2.84982
2.60761
2.33693
2.03183
1.71791
1.45462
1.30329
1.28657
1.42037
1.70271
2.14533
2.73264
3.38883
3.99882
4.41541
4.63638
4.70888
4.6508
4.48602
4.2459
3.94883
3.60707
3.22944
2.83107
2.43108
2.05697
1.71896
1.43445
4.18109
3.88297
3.59658
3.29716
2.96964
2.60471
2.21802
1.8601
1.60373
1.50282
1.59611
1.90308
2.41754
3.10342
3.86699
4.56141
5.02409
5.2725
5.35044
5.27184
5.06238
4.75949
4.39059
3.97561
3.52929
3.06653
2.60989
2.18298
1.80621
1.49929
5.27412
4.9239
4.58296
4.22941
3.85002
3.43249
2.98455
2.54611
2.19076
2.00213
2.04697
2.39064
3.01839
3.87054
4.81657
5.64826
6.17707
6.45507
6.52162
6.38499
6.08005
5.65581
5.15426
4.60743
4.03917
3.46905
2.91691
2.41004
1.96855
1.61125
6.75072
6.35886
5.98098
5.59701
5.19386
4.75523
4.27962
3.79606
3.37335
3.11752
3.12903
3.54683
4.35764
5.47807
6.72449
7.75861
8.37802
8.6732
8.68634
8.41585
7.92145
7.2708
6.52916
5.74726
4.96274
4.20238
3.4864
2.83819
2.27416
1.82212
8.92476
8.52924
8.16479
7.81367
7.46094
7.08561
6.6759
6.24939
5.86623
5.63867
5.70943
6.29422
7.40146
8.91855
10.6094
11.901
12.6125
12.8803
12.7364
12.1929
11.3426
10.284
9.11725
7.92122
6.75298
5.65112
4.63505
3.7229
2.9286
2.27987
12.5106
12.198
11.9478
11.7561
11.6071
11.4744
11.3357
11.1979
11.102
11.1482
11.5255
12.4763
14.0349
16.0607
18.2596
19.7847
20.5254
20.6543
20.1732
19.1452
17.703
15.9834
14.1286
12.2495
10.43
8.72873
7.16301
5.74444
4.48307
3.42635
19.0271
18.9612
18.945
19.1102
19.4093
19.8032
20.2414
20.7159
21.2414
21.907
22.9202
24.4938
26.6399
29.1648
31.6945
33.2274
33.8297
33.6351
32.6408
30.9677
28.7902
26.2732
23.5627
20.7866
18.0448
15.4327
12.9688
10.6489
8.48917
6.5856
30.4582
30.7192
31.3074
32.0796
33.0343
34.1353
35.2796
36.4417
37.6336
38.9794
40.7016
42.9043
45.4941
48.1447
50.3525
51.2327
51.3416
50.6333
49.1972
47.1268
44.6172
41.8064
38.7772
35.5735
32.2039
28.7865
25.3635
21.9114
18.4582
15.1742
44.6355
44.9301
46.1393
47.7587
49.4864
51.0899
52.4682
53.6945
54.902
56.3284
58.1783
60.342
62.5167
64.2173
64.8656
63.9165
62.9437
61.5893
60.0668
58.3162
56.5391
54.8152
53.1539
51.4497
49.517
47.0293
44.0944
40.7609
37.0368
33.0742
47.2606
48.1049
49.8664
51.8577
53.565
54.7567
55.504
56.016
56.5253
57.2846
58.421
59.7933
60.9853
61.5518
60.8318
58.7504
57.1587
55.5421
54.167
52.9518
52.0319
51.4321
51.1362
51.0364
50.9547
50.6661
50.0504
49.1281
47.883
46.3384
10.4376
13.4379
14.7511
15.5748
16.0283
16.1172
15.9052
15.4643
14.8474
14.1067
13.2669
12.3783
11.4483
10.5559
9.7295
9.06795
8.62847
8.69309
9.3739
10.204
10.4404
9.75583
8.22168
6.18374
4.06359
2.23174
0.932817
0.149864
0.129754
0.548845
6.12426
6.93077
7.32887
7.57968
7.70544
7.68916
7.54131
7.29221
6.97016
6.59732
6.19463
5.77559
5.36345
4.97034
4.63476
4.37396
4.25049
4.40858
4.95703
5.62068
5.96506
5.79237
5.15519
4.21295
3.12243
2.00326
1.05148
0.413835
0.259457
0.24632
5.60276
6.07977
6.36722
6.54073
6.60373
6.56345
6.42631
6.20982
5.93233
5.61001
5.26055
4.89672
4.54133
4.21089
3.93653
3.73577
3.65233
3.81211
4.29103
4.87807
5.22952
5.17351
4.75044
4.05044
3.14895
2.18812
1.30505
0.619316
0.336948
0.260541
5.31101
5.65596
5.94153
6.13595
6.222
6.20979
6.10285
5.91706
5.66905
5.37353
5.04778
4.70525
4.37153
4.06712
3.82341
3.65563
3.60315
3.78218
4.22602
4.73944
5.05494
5.02949
4.68185
4.06301
3.27239
2.39088
1.54138
0.81712
0.425439
0.2811
4.98678
5.24129
5.54631
5.79241
5.93307
5.96915
5.90591
5.75666
5.54037
5.27275
4.97129
4.65137
4.33875
4.0641
3.84862
3.71702
3.7075
3.92056
4.34443
4.79591
5.05837
5.01209
4.67939
4.11576
3.39027
2.56719
1.74861
1.0114
0.537997
0.327363
4.58125
4.77181
5.09239
5.3959
5.60452
5.69868
5.68931
5.58452
5.40648
5.1736
4.90336
4.61168
4.33293
4.08715
3.91028
3.82548
3.87138
4.12861
4.54068
4.9323
5.132
5.05146
4.71142
4.17162
3.48809
2.71271
1.92606
1.19356
0.668689
0.396609
4.1186
4.2496
4.57906
4.93215
5.20557
5.36131
5.40929
5.35617
5.22397
5.03392
4.80378
4.54831
4.30759
4.10648
3.97903
3.95331
4.06624
4.3725
4.775
5.10819
5.24191
5.11481
4.75559
4.22261
3.56649
2.83022
2.07553
1.35802
0.806908
0.484413
3.60874
3.67777
4.01325
4.40655
4.73619
4.95174
5.05802
5.06093
4.98103
4.84131
4.65997
4.45161
4.26025
4.11381
4.04668
4.09186
4.28173
4.63716
5.02696
5.30052
5.36572
5.18546
4.80064
4.26584
3.62787
2.9236
2.19997
1.50378
0.943693
0.58347
3.0369
3.06578
3.40573
3.83487
4.20995
4.47952
4.64355
4.7016
4.67935
4.5964
4.47169
4.32002
4.19091
4.10993
4.11294
4.23992
4.51275
4.91289
5.28277
5.49437
5.48847
5.25457
4.84097
4.30016
3.67493
2.99696
2.30286
1.63176
1.07376
0.687369
2.48703
2.49518
2.8173
3.24731
3.64944
3.96376
4.18008
4.29263
4.32779
4.30614
4.24308
4.15835
4.10339
4.09784
4.18113
4.39875
4.75599
5.19111
5.53126
5.67887
5.5987
5.314
4.87298
4.32544
3.71006
3.0547
2.38826
1.7437
1.19421
0.790717
2.02485
1.99248
2.27771
2.69065
3.10043
3.43848
3.69028
3.85268
3.94207
3.98081
3.98436
3.97581
4.0043
4.08311
4.25513
4.57017
5.0078
5.46331
5.76284
5.84396
5.69152
5.36051
4.89544
4.3428
3.73666
3.10118
2.46043
1.84264
1.30343
0.890512
1.65512
1.57066
1.80169
2.17959
2.57992
2.92867
3.20478
3.40323
3.53914
3.63614
3.70813
3.78225
3.89916
4.07312
4.33963
4.7556
5.26338
5.72118
5.97003
5.98279
5.76621
5.39349
4.90914
4.35443
3.75802
3.1412
2.52642
1.93122
1.40136
0.984881
1.38112
1.24351
1.40507
1.7284
2.10188
2.44861
2.73899
2.96633
3.14282
3.28914
3.42787
3.58705
3.79772
4.06994
4.4393
4.95551
5.51702
5.95752
6.14908
6.0916
5.82363
5.41512
4.91725
4.36394
3.77852
3.18374
2.58816
2.00764
1.48776
1.07187
1.19884
1.02751
1.1107
1.35797
1.6843
2.01348
2.30763
2.55575
2.7669
2.95899
3.15687
3.3993
3.7109
4.08954
4.55971
5.1698
5.7635
6.16826
6.29935
6.17568
5.86301
5.43012
4.92558
4.37709
3.80913
3.22873
2.64333
2.07322
1.56283
1.15046
1.12474
0.936736
0.944264
1.09899
1.3533
1.644
1.92745
2.18575
2.42394
2.65709
2.91274
3.23035
3.6482
4.13395
4.70594
5.39878
6.00068
6.35538
6.42685
6.24681
5.89835
5.45016
4.94418
4.40992
3.85161
3.2744
2.69112
2.12883
1.62721
1.22036
1.15919
0.974269
0.919785
0.9831
1.14313
1.36787
1.61807
1.87144
2.12648
2.39378
2.70232
3.09091
3.61196
4.21025
4.88477
5.64535
6.23282
6.52957
6.54674
6.32478
5.95351
5.49569
5.00075
4.46968
3.90522
3.31856
2.73306
2.17574
1.6819
1.28186
1.29907
1.12414
1.03591
1.01828
1.08094
1.21641
1.40291
1.62912
1.88587
2.17841
2.53743
3.00047
3.60161
4.32885
5.10679
5.91862
6.47458
6.71407
6.68687
6.43998
6.06452
5.62091
5.11473
4.55848
3.96805
3.36436
2.77144
2.21582
1.72838
1.33566
1.58253
1.39819
1.27977
1.20377
1.17138
1.19714
1.30351
1.47674
1.71541
2.02327
2.43082
2.95703
3.65695
4.50851
5.39058
6.23944
6.75531
6.94884
6.89429
6.6418
6.27892
5.82906
5.28856
4.67911
4.04762
3.4167
2.80983
2.25191
1.7688
1.38307
2.01589
1.80229
1.64609
1.51735
1.40869
1.3359
1.33161
1.42809
1.6335
1.9442
2.38161
2.9781
3.79849
4.77763
5.76962
6.64917
7.12995
7.30117
7.25093
7.00827
6.61583
6.13225
5.53032
4.85189
4.15768
3.48495
2.85474
2.28863
1.8064
1.42613
2.60901
2.34776
2.14185
1.95794
1.78202
1.62204
1.51568
1.50775
1.64035
1.93535
2.42553
3.13339
4.07679
5.18781
6.30708
7.22582
7.69772
7.89338
7.86517
7.57362
7.13856
6.5713
5.87972
5.11243
4.32568
3.58861
2.91967
2.33524
1.84748
1.4688
3.38414
3.06027
2.79384
2.55023
2.31085
2.07454
1.87443
1.76825
1.82017
2.09848
2.64433
3.46853
4.5716
5.84815
7.12517
8.11716
8.64782
8.87153
8.81091
8.43641
7.92393
7.22126
6.39561
5.5036
4.61168
3.77127
3.03473
2.41197
1.90531
1.51949
4.38712
3.99233
3.66086
3.35789
3.06122
2.76104
2.48258
2.28967
2.26067
2.51805
3.1304
4.11211
5.43487
6.9532
8.46497
9.57436
10.1665
10.3992
10.2466
9.80709
9.11218
8.20702
7.18248
6.1174
5.07423
4.11488
3.26995
2.56781
2.01155
1.59883
5.71042
5.24817
4.86054
4.51245
4.17784
3.83847
3.51051
3.25733
3.17363
3.42471
4.13525
5.32717
6.95556
8.81844
10.6625
11.9198
12.565
12.7769
12.5106
11.9008
10.941
9.74441
8.43417
7.1133
5.85527
4.71252
3.71754
2.89608
2.24633
1.76489
7.54306
7.03864
6.62769
6.27435
5.94841
5.62393
5.3086
5.06333
4.99394
5.30076
6.16673
7.65104
9.67851
11.9969
14.2789
15.6714
16.3357
16.4744
16.0522
15.1404
13.8104
12.2081
10.5014
8.80904
7.22506
5.80158
4.5659
3.53579
2.70991
2.0942
10.2805
9.79507
9.42945
9.14728
8.91822
8.71213
8.5312
8.43248
8.53295
9.03641
10.1603
12.0254
14.5394
17.3695
20.1491
21.5647
22.1692
22.1407
21.448
20.1488
18.3486
16.2222
13.998
11.8006
9.74075
7.88401
6.25288
4.86081
3.71468
2.8311
14.6966
14.3611
14.138
14.0333
14.0342
14.1037
14.2381
14.5034
15.0022
15.9076
17.4315
19.7507
22.762
26.04
29.1954
30.3356
30.7071
30.3431
29.2865
27.5799
25.3203
22.6564
19.8891
17.1087
14.4458
11.9816
9.74198
7.74562
6.01626
4.61489
21.8883
21.8092
21.9288
22.2285
22.6152
23.1052
23.7109
24.506
25.5498
26.9869
28.991
31.7449
35.127
38.5613
41.5644
41.7076
41.1794
40.045
38.6032
36.7329
34.5228
32.0133
29.1043
25.9915
22.8546
19.7873
16.8123
13.9714
11.3275
9.02635
32.5258
32.6316
33.1896
34.01
34.9684
36.024
37.1384
38.3239
39.7271
41.5102
43.8082
46.7193
50.0644
52.9557
54.4974
52.2351
50.4836
48.5663
46.9055
45.1809
43.4796
41.7501
39.9465
37.9398
35.4595
32.5027
29.2696
25.8287
22.2986
18.9288
43.1437
43.6017
44.7141
46.0773
47.4337
48.6733
49.7926
50.9121
52.1845
53.8021
55.8743
58.3192
60.9923
62.2854
61.6073
57.0331
54.1671
51.6551
49.9011
48.5617
47.7045
47.2124
46.9764
46.7586
46.264
45.2031
43.5303
41.2681
38.4042
35.145
43.627
44.8291
46.5851
48.4299
50.0115
51.1891
52.0385
52.7708
53.5953
54.7561
56.3133
58.0394
59.4364
59.3845
56.8129
51.1347
47.8051
45.1368
43.4498
42.3687
42.0102
42.3096
43.1205
44.1702
45.1914
45.8956
46.0953
45.8187
45.1336
44.1428
14.0986
17.7528
19.1711
19.8885
20.2709
20.2689
19.9305
19.3318
18.5283
17.5758
16.4911
15.3297
14.0918
12.8855
11.7554
10.865
10.3962
11.1377
13.4
15.8495
16.8005
15.8377
13.3674
10.105
6.69174
3.65937
1.46202
0.149241
0.127519
0.531656
8.03584
8.87554
9.21774
9.37092
9.44392
9.38604
9.1909
8.8831
8.49086
8.0342
7.53668
7.00499
6.47322
5.9451
5.48793
5.11214
4.97616
5.46496
6.81442
8.29153
9.01121
8.76539
7.80368
6.42095
4.84497
3.16454
1.63823
0.451147
0.198813
0.239749
7.37805