/*--------------------------------*- C++ -*----------------------------------*\
| =========                 |                                                 |
| \\      /  F ield         | OpenFOAM: The Open Source CFD Toolbox           |
|  \\    /   O peration     | Version:  5.0                                   |
|   \\  /    A nd           | Web:      www.OpenFOAM.org                      |
|    \\/     M anipulation  |                                                 |
\*---------------------------------------------------------------------------*/
FoamFile
{
    version     2.0;
    format      ascii;
    class       volScalarField;
    location    "1350/air";
    object      k;
}
// * * * * * * * * * * * * * * * * * * * * * * * * * * * * * * * * * * * * * //

dimensions      [0 2 -2 0 0 0 0];

internalField   nonuniform List<scalar> 
243000
(
0.06256
0.0719509
0.0755176
0.0769357
0.0766005
0.0750185
0.0725624
0.0695311
0.0661498
0.062591
0.0589303
0.0552527
0.0515738
0.0480326
0.0447247
0.0418751
0.0396268
0.0387555
0.0382209
0.0371563
0.036103
0.0347047
0.0326483
0.0300223
0.028644
0.0262937
0.0247463
0.0228117
0.0196373
0.018194
0.0921672
0.105687
0.109772
0.110557
0.109211
0.106395
0.102623
0.0982773
0.0936118
0.0887884
0.0838883
0.0790231
0.0742536
0.0698064
0.0658192
0.0625904
0.0602553
0.0591188
0.0587423
0.0585291
0.0579187
0.0564926
0.0539026
0.0501398
0.0453212
0.0402441
0.0351364
0.0298063
0.0245828
0.0216877
0.105055
0.119877
0.125404
0.12695
0.12585
0.123007
0.118998
0.114266
0.109106
0.103729
0.0982475
0.0928346
0.0875842
0.0827895
0.0786239
0.0754514
0.0733957
0.0726212
0.0726093
0.0727124
0.0722079
0.0706232
0.0676137
0.0631371
0.057499
0.0511213
0.0443892
0.0372991
0.0305504
0.025328
0.108284
0.124553
0.132399
0.135336
0.135275
0.133164
0.129606
0.125097
0.119986
0.114538
0.108916
0.103355
0.0979913
0.0931887
0.0891619
0.0863424
0.0848257
0.0846485
0.0850953
0.0854378
0.0849227
0.0831014
0.079682
0.0746305
0.06826
0.0609498
0.0530965
0.0447114
0.0367459
0.030149
0.105781
0.122425
0.132377
0.137612
0.139279
0.138368
0.135703
0.131824
0.12714
0.121973
0.11654
0.111135
0.105947
0.101408
0.0977741
0.0955391
0.0947478
0.095269
0.0962065
0.0967571
0.096175
0.0940848
0.0902791
0.0847589
0.0778254
0.0698415
0.0612005
0.0519024
0.0428916
0.0352793
0.0994035
0.116353
0.128322
0.135576
0.139047
0.139683
0.138204
0.135234
0.13125
0.126618
0.12162
0.116604
0.111816
0.107754
0.104714
0.103248
0.103311
0.104585
0.106017
0.106751
0.106081
0.103717
0.0995547
0.093648
0.0862891
0.0778236
0.0686346
0.0587159
0.0488367
0.0404017
0.0902245
0.107555
0.121116
0.130266
0.135626
0.137922
0.137857
0.135988
0.132844
0.128929
0.124565
0.120118
0.115902
0.112484
0.1102
0.109651
0.110644
0.1127
0.114619
0.115521
0.11476
0.112136
0.107652
0.101423
0.0937448
0.0849454
0.0753831
0.0650553
0.0545058
0.0453881
0.0800645
0.097502
0.111885
0.122627
0.129742
0.133723
0.135127
0.134532
0.132456
0.12939
0.125717
0.121971
0.118459
0.115818
0.114418
0.114896
0.116869
0.119712
0.122102
0.123165
0.122323
0.119468
0.114698
0.108203
0.100286
0.0912621
0.0814587
0.070884
0.0598998
0.0501897
0.0703777
0.0875375
0.10244
0.113923
0.122201
0.127686
0.130533
0.131256
0.130328
0.128243
0.125435
0.122443
0.119711
0.117947
0.117527
0.119107
0.122091
0.125709
0.128554
0.129775
0.128871
0.125819
0.120809
0.114098
0.106004
0.0968367
0.0868917
0.0761905
0.0649162
0.0547457
0.0624944
0.0775953
0.09287
0.1052
0.114341
0.120629
0.124625
0.126571
0.12682
0.125785
0.123904
0.121761
0.119864
0.119033
0.119669
0.122385
0.126402
0.130769
0.134049
0.135432
0.134492
0.131286
0.126083
0.119204
0.110986
0.101738
0.0917495
0.0809441
0.0694848
0.0590211
0.0582735
0.0683359
0.0830992
0.0961948
0.106326
0.113546
0.118309
0.121007
0.122299
0.122299
0.12137
0.120117
0.119096
0.119232
0.120957
0.124825
0.129866
0.134962
0.138656
0.140207
0.139265
0.135951
0.130607
0.123606
0.115311
0.106046
0.0960171
0.085142
0.0735801
0.0629663
0.0597917
0.0619442
0.0736581
0.0868469
0.097946
0.106223
0.111903
0.115393
0.117307
0.118104
0.118066
0.11769
0.117561
0.118664
0.121491
0.126503
0.132536
0.138345
0.142435
0.144165
0.143256
0.139885
0.134454
0.127381
0.119056
0.109793
0.0997348
0.0888339
0.0772748
0.0665799
0.0685925
0.0621558
0.0667245
0.0777071
0.0892015
0.0985181
0.105252
0.109667
0.112316
0.113675
0.114259
0.114664
0.115388
0.117443
0.121358
0.127486
0.134464
0.140957
0.145438
0.14736
0.146526
0.143153
0.13769
0.13059
0.122285
0.113027
0.102959
0.0920481
0.08062
0.0698921
0.0810471
0.0718968
0.0662327
0.0709315
0.0807145
0.0905108
0.0982768
0.103727
0.10723
0.109252
0.110332
0.111249
0.112711
0.115673
0.120635
0.127826
0.135691
0.14283
0.147711
0.149843
0.149127
0.145807
0.140364
0.133307
0.125032
0.115801
0.105733
0.0948187
0.083612
0.0729066
0.0941211
0.0861454
0.0752682
0.0702668
0.0745225
0.0828671
0.0911129
0.0975424
0.101982
0.104766
0.106428
0.107724
0.109685
0.11345
0.119385
0.127569
0.136234
0.14399
0.149286
0.151655
0.151104
0.147889
0.142535
0.135565
0.127349
0.118162
0.108102
0.0971921
0.0862697
0.0756319
0.107815
0.100595
0.0907168
0.0790921
0.0740246
0.0774266
0.084408
0.0912755
0.0965766
0.100179
0.102496
0.104255
0.10648
0.110875
0.117671
0.126755
0.136214
0.144474
0.150175
0.152838
0.152496
0.149448
0.14426
0.137402
0.129277
0.12015
0.110114
0.0993194
0.088653
0.0780959
0.122125
0.11527
0.106214
0.0935074
0.0817546
0.076929
0.0796622
0.0854854
0.0911687
0.0955065
0.098515
0.100804
0.103378
0.108063
0.115553
0.12542
0.135551
0.144395
0.150459
0.153428
0.153343
0.15054
0.145548
0.138853
0.130855
0.121808
0.111814
0.101307
0.0908344
0.0803404
0.137049
0.130206
0.121421
0.109811
0.0954978
0.0835092
0.0790105
0.0813082
0.0861896
0.0908782
0.0945046
0.0973534
0.100338
0.105134
0.113103
0.123607
0.134328
0.143665
0.150183
0.153492
0.153694
0.15118
0.146439
0.139959
0.132126
0.123187
0.113256
0.103115
0.092834
0.082394
0.152517
0.145423
0.136561
0.125407
0.111078
0.0955616
0.0839939
0.0802576
0.0824309
0.0865967
0.0905591
0.0939197
0.0973402
0.102341
0.110423
0.121368
0.132574
0.142363
0.149307
0.153015
0.153558
0.151385
0.146971
0.140767
0.133144
0.124342
0.114677
0.104803
0.094682
0.0842814
0.168448
0.160897
0.151715
0.14048
0.126624
0.110136
0.0939468
0.0835161
0.0809139
0.0831732
0.086876
0.0905597
0.094394
0.0996486
0.107633
0.118776
0.130336
0.140531
0.1479
0.152044
0.152999
0.151205
0.147192
0.141331
0.133967
0.125338
0.116039
0.106403
0.0964088
0.0860263
0.184731
0.176576
0.166921
0.155436
0.141859
0.125277
0.106855
0.0909978
0.0825021
0.0812608
0.083769
0.0873951
0.0915356
0.0970476
0.105011
0.115949
0.127687
0.138209
0.145988
0.150601
0.152035
0.150707
0.147117
0.141674
0.134636
0.12631
0.117363
0.107942
0.098046
0.0876561
0.201239
0.192388
0.182223
0.1708
0.157049
0.140336
0.12093
0.101549
0.0874083
0.0814565
0.0816339
0.0846153
0.0888321
0.0945436
0.102523
0.113122
0.124726
0.135442
0.143592
0.148688
0.150668
0.149875
0.146784
0.141817
0.135187
0.127325
0.118705
0.109469
0.0996365
0.0892044
0.217907
0.208372
0.197988
0.18631
0.172166
0.155153
0.135225
0.113772
0.0951378
0.0840658
0.0808786
0.0824784
0.0864166
0.0921963
0.10018
0.11052
0.121855
0.132444
0.140783
0.146325
0.148893
0.148691
0.146205
0.141774
0.135735
0.128396
0.12011
0.111048
0.10124
0.0907193
0.234856
0.225243
0.214607
0.202079
0.18726
0.169783
0.149372
0.126712
0.104909
0.0890909
0.0818684
0.0813032
0.0844992
0.09014
0.0980703
0.1082
0.119308
0.129791
0.138297
0.144203
0.147307
0.147701
0.145819
0.141947
0.136461
0.129611
0.121654
0.112755
0.102951
0.0922887
0.252992
0.242917
0.231086
0.217676
0.202236
0.184295
0.163509
0.140142
0.116264
0.0965087
0.0850285
0.0816202
0.083518
0.0887487
0.0965427
0.106488
0.117371
0.127753
0.136391
0.142639
0.146249
0.147217
0.145863
0.142544
0.137563
0.131157
0.123513
0.114754
0.10491
0.0940334
0.268204
0.258069
0.246172
0.232694
0.217192
0.199222
0.178425
0.154828
0.129756
0.107019
0.0914634
0.0847222
0.0847079
0.0892302
0.0968143
0.106607
0.117336
0.127622
0.136326
0.142779
0.146673
0.148075
0.14721
0.144332
0.13975
0.133694
0.126298
0.117613
0.107596
0.0962981
0.283453
0.273511
0.26222
0.249255
0.234252
0.216838
0.19664
0.173522
0.148251
0.123747
0.1048
0.0945589
0.0922178
0.0957131
0.103047
0.112661
0.123081
0.133035
0.141478
0.147805
0.151695
0.153194
0.152485
0.14976
0.145307
0.139335
0.131922
0.12308
0.112674
0.10058
0.304987
0.295337
0.284631
0.272654
0.259111
0.243588
0.225584
0.204761
0.181412
0.157489
0.137223
0.124653
0.120371
0.122775
0.129722
0.138814
0.148203
0.156969
0.16419
0.169338
0.172194
0.172825
0.171341
0.167921
0.162792
0.156124
0.148004
0.138316
0.126753
0.112812
0.347692
0.339684
0.331775
0.323807
0.315404
0.3059
0.294485
0.280641
0.264232
0.246135
0.22975
0.218973
0.214895
0.21668
0.222336
0.229381
0.235811
0.241242
0.245052
0.246952
0.246966
0.245048
0.241322
0.235867
0.228659
0.219733
0.209587
0.197785
0.183923
0.167176
0.508496
0.507586
0.509438
0.510986
0.511728
0.511159
0.508803
0.504557
0.497894
0.48811
0.4789
0.472304
0.468525
0.467655
0.468616
0.471061
0.472852
0.474787
0.476326
0.477705
0.478773
0.479479
0.479586
0.478857
0.47573
0.469544
0.463636
0.45537
0.444543
0.431206
0.0921806
0.10939
0.116728
0.119897
0.120081
0.118156
0.11476
0.1104
0.105404
0.100043
0.0944655
0.0888964
0.0834206
0.0783503
0.0738389
0.0702572
0.0676936
0.0662851
0.0657484
0.0653783
0.0640584
0.060905
0.0555176
0.0481199
0.0394993
0.030594
0.0248301
0.022709
0.0209232
0.0196012
0.14147
0.165274
0.172445
0.172362
0.168247
0.161777
0.154099
0.145888
0.137529
0.129305
0.121337
0.113856
0.106905
0.100894
0.0959556
0.0925362
0.0905155
0.0900756
0.0906544
0.0913924
0.0909467
0.0881954
0.0823008
0.0733452
0.0622761
0.0501415
0.0387078
0.0305596
0.0307849
0.0278033
0.164062
0.191871
0.203118
0.205756
0.20313
0.197381
0.189775
0.181141
0.172008
0.162799
0.153752
0.145237
0.137385
0.130793
0.125668
0.122573
0.121207
0.1215
0.122504
0.123247
0.122345
0.118677
0.111357
0.100392
0.0867121
0.07142
0.0561436
0.0423396
0.0360651
0.0346162
0.168086
0.198094
0.21446
0.220831
0.221159
0.217668
0.211634
0.204011
0.195459
0.186511
0.177536
0.169043
0.161284
0.155008
0.150516
0.148431
0.148219
0.149415
0.150783
0.151326
0.149721
0.145025
0.136429
0.123927
0.108381
0.0908526
0.0729071
0.0555081
0.0437304
0.0377171
0.162483
0.19165
0.211662
0.22287
0.227367
0.226887
0.223143
0.217238
0.210002
0.202049
0.193886
0.186143
0.179203
0.173951
0.170744
0.170238
0.171517
0.173756
0.175503
0.175802
0.173445
0.167741
0.158059
0.144413
0.127587
0.108579
0.0888682
0.0691539
0.0535444
0.0433113
0.149997
0.178785
0.201836
0.216764
0.224965
0.227856
0.226738
0.222901
0.217457
0.210975
0.204135
0.197674
0.192105
0.188427
0.187038
0.188556
0.191553
0.19492
0.197055
0.1971
0.194004
0.187346
0.176735
0.162234
0.144562
0.124633
0.103815
0.0826693
0.0645454
0.0510396
0.131829
0.159837
0.185818
0.204362
0.216279
0.222485
0.224229
0.22294
0.219246
0.214524
0.209384
0.204608
0.200834
0.199164
0.200052
0.203926
0.208782
0.213307
0.215833
0.215629
0.211833
0.204301
0.192884
0.177736
0.159529
0.139092
0.117658
0.095696
0.075994
0.0600612
0.109779
0.136676
0.165104
0.187429
0.202827
0.212268
0.216767
0.217877
0.21649
0.213798
0.21051
0.207719
0.206073
0.20677
0.210322
0.216772
0.223562
0.229234
0.232143
0.231714
0.227277
0.218964
0.206851
0.191214
0.172693
0.152058
0.130371
0.108034
0.0873893
0.0697225
0.0916434
0.115112
0.143466
0.168152
0.18623
0.198546
0.205421
0.208846
0.209886
0.209427
0.208329
0.207737
0.208408
0.211805
0.218236
0.227407
0.23618
0.242948
0.24623
0.245609
0.240612
0.231621
0.218927
0.202926
0.184259
0.16365
0.141978
0.119608
0.0985131
0.0795812
0.0774506
0.0960075
0.122404
0.148389
0.168702
0.18298
0.191453
0.196815
0.200073
0.202024
0.203375
0.20516
0.208286
0.214649
0.224127
0.236082
0.246854
0.254649
0.258287
0.25752
0.252056
0.242506
0.229352
0.213106
0.194428
0.174007
0.152576
0.130391
0.109151
0.0893177
0.0685614
0.0802744
0.102987
0.128577
0.1505
0.166682
0.176716
0.183345
0.188413
0.192453
0.196162
0.200483
0.206257
0.215692
0.228293
0.243018
0.255737
0.264497
0.268477
0.267617
0.261797
0.251817
0.238333
0.22196
0.203397
0.183295
0.162191
0.140268
0.119148
0.0987175
0.0661236
0.06966
0.0863138
0.109542
0.131936
0.149801
0.161617
0.169803
0.176353
0.181899
0.187501
0.194167
0.20266
0.215153
0.230968
0.248386
0.262933
0.272636
0.276934
0.276048
0.269988
0.259725
0.246052
0.22968
0.211347
0.191646
0.170844
0.14929
0.128411
0.107684
0.0712487
0.0667828
0.0744425
0.0927891
0.113931
0.132645
0.14625
0.156226
0.164255
0.171212
0.178237
0.186764
0.197869
0.213471
0.23237
0.252324
0.268543
0.279177
0.28378
0.282946
0.276776
0.266381
0.252669
0.236434
0.218469
0.199081
0.178643
0.15753
0.136936
0.116267
0.0823259
0.0738467
0.0717204
0.0811079
0.0983256
0.116221
0.130935
0.142714
0.152233
0.160539
0.168939
0.178876
0.192216
0.210829
0.232637
0.254937
0.272672
0.284205
0.289127
0.288431
0.282285
0.27191
0.258321
0.242411
0.224784
0.205753
0.185717
0.165139
0.144794
0.124228
0.099085
0.0888247
0.0809732
0.0793538
0.088255
0.102434
0.116763
0.129565
0.140362
0.149947
0.15966
0.170905
0.186152
0.207432
0.231914
0.256312
0.275403
0.287801
0.293099
0.292626
0.286626
0.276454
0.26318
0.247684
0.230426
0.211787
0.192197
0.172295
0.152083
0.131598
0.121947
0.110513
0.0999569
0.0906561
0.0877934
0.0944144
0.105454
0.117466
0.128934
0.139594
0.150516
0.163064
0.179887
0.203449
0.230307
0.256574
0.276796
0.290034
0.295834
0.295645
0.28997
0.280175
0.267391
0.252326
0.235502
0.21731
0.198274
0.178928
0.15883
0.138398
0.151142
0.138703
0.126269
0.112606
0.100622
0.0957689
0.0995225
0.108076
0.118719
0.129859
0.141731
0.155531
0.173857
0.199103
0.227944
0.255803
0.277166
0.291029
0.297461
0.297745
0.292508
0.283223
0.270982
0.256466
0.240151
0.222477
0.204157
0.185087
0.165071
0.144647
0.186449
0.172828
0.158568
0.142135
0.124176
0.109004
0.101917
0.103632
0.110999
0.121365
0.133631
0.148525
0.168225
0.194636
0.224996
0.254171
0.276672
0.291237
0.298276
0.299084
0.294446
0.28578
0.274161
0.260267
0.244551
0.227647
0.209905
0.190931
0.170892
0.150401
0.225808
0.21154
0.195542
0.176812
0.15498
0.132348
0.114499
0.106256
0.107439
0.115048
0.126757
0.142306
0.163133
0.190415
0.221742
0.251938
0.275326
0.290821
0.29858
0.300018
0.29612
0.288206
0.277306
0.264074
0.249172
0.23295
0.215504
0.196573
0.176403
0.155752
0.268456
0.253322
0.236004
0.215271
0.19053
0.162744
0.1362
0.117337
0.109678
0.112097
0.121792
0.137254
0.158841
0.186885
0.218695
0.249611
0.273788
0.290346
0.298905
0.301111
0.298123
0.29108
0.281142
0.268813
0.254588
0.238784
0.221293
0.202219
0.18177
0.160834
0.313683
0.297722
0.279299
0.256728
0.229447
0.197779
0.164742
0.136448
0.1189
0.113798
0.119624
0.134004
0.155809
0.184483
0.216838
0.248166
0.27343
0.290816
0.300164
0.30339
0.301607
0.295551
0.286369
0.274735
0.261096
0.24554
0.227683
0.208179
0.187227
0.16584
0.360834
0.344377
0.324972
0.30074
0.27114
0.236289
0.198337
0.162434
0.135348
0.121604
0.121392
0.133019
0.154388
0.183549
0.216786
0.249222
0.27562
0.294018
0.304393
0.308562
0.30779
0.302505
0.293915
0.282779
0.269408
0.253644
0.235375
0.21499
0.19316
0.171006
0.40953
0.39313
0.372898
0.347317
0.315845
0.278474
0.236764
0.194924
0.15946
0.136666
0.129204
0.136737
0.156919
0.186418
0.220764
0.254635
0.282496
0.302098
0.313492
0.318534
0.318573
0.313805
0.305425
0.294278
0.28062
0.264218
0.245127
0.223699
0.20034
0.176858
0.460278
0.444127
0.423839
0.397756
0.365354
0.32652
0.28231
0.23613
0.193806
0.162395
0.147104
0.148744
0.167043
0.196985
0.233058
0.26909
0.298812
0.319417
0.331866
0.337558
0.337859
0.332887
0.323802
0.311621
0.296831
0.279326
0.258734
0.235655
0.21044
0.184711
0.515189
0.500052
0.480967
0.455924
0.424431
0.386216
0.341806
0.293748
0.246963
0.20852
0.185573
0.180775
0.195749
0.226622
0.265474
0.304429
0.335736
0.357456
0.370364
0.375615
0.374453
0.367369
0.355819
0.340956
0.323465
0.303428
0.280466
0.254358
0.225869
0.196753
0.583627
0.570915
0.55476
0.533222
0.505761
0.471866
0.431523
0.386447
0.34033
0.299567
0.272194
0.262649
0.274437
0.305701
0.348142
0.389487
0.420703
0.441766
0.452727
0.454793
0.448815
0.436223
0.418829
0.397954
0.374539
0.348933
0.32075
0.289537
0.254699
0.218837
0.686108
0.678548
0.668565
0.654847
0.636723
0.613338
0.583867
0.549525
0.512848
0.479028
0.455639
0.447533
0.459383
0.490885
0.534119
0.573899
0.601504
0.617775
0.622723
0.616791
0.601328
0.578581
0.550697
0.519001
0.484623
0.44827
0.409609
0.367675
0.321327
0.27147
0.863677
0.863567
0.863137
0.860919
0.85673
0.849009
0.835619
0.817619
0.796606
0.777093
0.7648
0.763979
0.779007
0.809219
0.846819
0.87932
0.899967
0.90939
0.906886
0.892429
0.868144
0.836266
0.798975
0.757072
0.711171
0.66217
0.609803
0.552023
0.487221
0.415744
1.08735
1.09163
1.10504
1.11943
1.13334
1.14152
1.14064
1.13328
1.12098
1.10998
1.10474
1.10829
1.12127
1.14302
1.16581
1.18421
1.19526
1.19914
1.19445
1.18128
1.16112
1.13563
1.10619
1.07291
1.03505
0.991669
0.942303
0.884417
0.816595
0.739307
1.15661
1.16329
1.1858
1.20833
1.22288
1.22745
1.22396
1.21513
1.20447
1.19544
1.19218
1.19496
1.201
1.20952
1.21346
1.21439
1.21598
1.21509
1.21213
1.2068
1.19978
1.19221
1.18469
1.1776
1.16988
1.15898
1.14406
1.12426
1.09884
1.06793
0.123702
0.144766
0.152148
0.155586
0.155646
0.153133
0.148814
0.143309
0.137026
0.130322
0.123372
0.116466
0.109665
0.103397
0.0978293
0.0934804
0.0904769
0.0895419
0.0907814
0.0927188
0.0927065
0.0888984
0.0806308
0.0684419
0.0538253
0.0385437
0.0246471
0.0224151
0.0210176
0.0211151
0.194302
0.225269
0.235591
0.236083
0.23091
0.222598
0.212724
0.202152
0.191345
0.180643
0.170151
0.160141
0.150587
0.142065
0.13472
0.129199
0.125567
0.125471
0.129042
0.134344
0.137579
0.135902
0.127338
0.112131
0.0922298
0.0700659
0.0487226
0.0340772
0.0321154
0.0297061
0.231247
0.266423
0.282574
0.28688
0.283787
0.276378
0.266469
0.255144
0.243047
0.23071
0.218421
0.206616
0.195425
0.185632
0.177493
0.171699
0.168119
0.168407
0.172368
0.177933
0.181169
0.179035
0.169074
0.15131
0.127527
0.100139
0.0727627
0.0497172
0.039592
0.0382157
0.247305
0.284001
0.304174
0.312491
0.313069
0.308292
0.30012
0.289778
0.278078
0.265726
0.253202
0.241106
0.22976
0.220096
0.212462
0.207476
0.204709
0.205477
0.209301
0.2142
0.216539
0.213402
0.202333
0.183055
0.157084
0.126669
0.0954052
0.0667043
0.0487218
0.0418918
0.248345
0.28157
0.305499
0.320284
0.32607
0.324753
0.319269
0.310874
0.300562
0.289219
0.277519
0.266205
0.255795
0.247341
0.241196
0.237825
0.23639
0.237733
0.241202
0.245009
0.246007
0.241561
0.229465
0.209272
0.182204
0.150223
0.116657
0.0843411
0.0605439
0.0482111
0.241699
0.270765
0.296899
0.315555
0.325847
0.329186
0.327104
0.321317
0.313074
0.3035
0.293447
0.283783
0.275214
0.268879
0.265032
0.26391
0.264139
0.266116
0.269116
0.271634
0.271047
0.265106
0.251991
0.231202
0.203693
0.171117
0.13639
0.101931
0.074142
0.0570796
0.228566
0.252961
0.279882
0.301853
0.316585
0.324116
0.325761
0.323013
0.317311
0.310105
0.302415
0.295138
0.289201
0.285781
0.284945
0.286599
0.288653
0.291294
0.293777
0.294931
0.292608
0.285082
0.270937
0.24972
0.22216
0.189618
0.15455
0.119051
0.0886485
0.0678086
0.206006
0.227126
0.255362
0.280554
0.299566
0.311276
0.316677
0.317389
0.314811
0.310579
0.305517
0.301261
0.298653
0.29884
0.301699
0.306482
0.310434
0.313726
0.315678
0.315436
0.311331
0.302195
0.287017
0.265456
0.238076
0.205975
0.171226
0.135435
0.103525
0.079658
0.176778
0.195697
0.224957
0.253246
0.276619
0.292273
0.30144
0.305615
0.30645
0.305459
0.303786
0.302979
0.304313
0.308807
0.315843
0.323987
0.329842
0.333733
0.335172
0.333515
0.327659
0.316948
0.300765
0.278911
0.251848
0.22049
0.186279
0.150661
0.118054
0.0919685
0.149993
0.165159
0.193724
0.223848
0.249769
0.268723
0.281521
0.289088
0.293381
0.295897
0.29798
0.301098
0.306948
0.316249
0.327752
0.339419
0.347135
0.351558
0.352487
0.34945
0.341923
0.329733
0.31261
0.290508
0.263837
0.233296
0.199749
0.164704
0.131954
0.104294
0.127545
0.137296
0.16315
0.19364
0.221412
0.243053
0.258577
0.269136
0.276818
0.282889
0.288892
0.296284
0.306806
0.321597
0.337788
0.352998
0.362515
0.367384
0.36781
0.363453
0.354386
0.340861
0.322904
0.300609
0.27444
0.244515
0.211808
0.177652
0.145114
0.116394
0.111392
0.114106
0.134888
0.163909
0.192526
0.216262
0.234259
0.247544
0.258042
0.267457
0.277357
0.289216
0.30506
0.325338
0.34624
0.364878
0.37614
0.381372
0.381287
0.375715
0.365273
0.350601
0.331946
0.309516
0.283699
0.254488
0.222694
0.189517
0.15746
0.128206
0.102615
0.098043
0.111401
0.136427
0.164332
0.189312
0.209423
0.225212
0.238383
0.250706
0.264222
0.280543
0.301902
0.327847
0.353325
0.375208
0.388114
0.393656
0.393065
0.386421
0.374806
0.359197
0.339983
0.3176
0.292041
0.263508
0.232645
0.200598
0.168945
0.139581
0.103468
0.0928879
0.0968349
0.114292
0.138866
0.163564
0.18504
0.202965
0.218596
0.233679
0.250356
0.270898
0.297791
0.329486
0.359197
0.384101
0.398537
0.404362
0.403316
0.39577
0.383214
0.366866
0.347312
0.32496
0.299737
0.271863
0.241999
0.210884
0.179585
0.150208
0.111925
0.0989018
0.0947468
0.102408
0.119654
0.141301
0.162558
0.181765
0.199428
0.217015
0.236647
0.260908
0.293113
0.330087
0.363934
0.391657
0.407531
0.413641
0.412246
0.404005
0.390735
0.373901
0.354225
0.331937
0.307082
0.279939
0.251013
0.220405
0.189418
0.160076
0.130297
0.11599
0.107109
0.104576
0.111669
0.126159
0.144236
0.162984
0.181758
0.201351
0.223659
0.2516
0.288213
0.329757
0.367616
0.39799
0.415259
0.421705
0.420132
0.411436
0.397696
0.380658
0.361069
0.338936
0.314527
0.288163
0.259712
0.229337
0.198522
0.169216
0.159058
0.143816
0.131926
0.122706
0.118431
0.12204
0.133288
0.148576
0.166735
0.187389
0.212026
0.24334
0.283348
0.328953
0.370396
0.403287
0.421973
0.428881
0.427365
0.418489
0.404596
0.387607
0.368326
0.34675
0.322744
0.296648
0.268135
0.237784
0.206986
0.177664
0.19756
0.181162
0.166774
0.152834
0.140135
0.132069
0.131907
0.140937
0.155832
0.176084
0.202378
0.23649
0.279276
0.327865
0.372542
0.407891
0.428098
0.43568
0.434532
0.425825
0.412143
0.395486
0.376827
0.355723
0.331847
0.305335
0.276453
0.245873
0.214912
0.185486
0.244164
0.226132
0.209118
0.191321
0.172545
0.154983
0.143305
0.141407
0.150641
0.168584
0.195369
0.231329
0.276185
0.326814
0.374607
0.412442
0.434392
0.442939
0.442567
0.434501
0.421511
0.405646
0.387299
0.366079
0.341717
0.314396
0.284828
0.253753
0.222424
0.192775
0.297176
0.276949
0.25701
0.235564
0.211982
0.187316
0.165618
0.152685
0.152205
0.165368
0.1912
0.227905
0.274439
0.326735
0.377721
0.418135
0.442186
0.452127
0.453051
0.446404
0.43434
0.418736
0.400027
0.378074
0.352717
0.324198
0.293549
0.261642
0.2297
0.199674
0.355151
0.332386
0.309314
0.284257
0.256456
0.226264
0.196711
0.173634
0.162995
0.168426
0.19028
0.226847
0.275437
0.330969
0.384219
0.427192
0.453883
0.465907
0.468753
0.463234
0.451484
0.435418
0.415785
0.392636
0.365736
0.335693
0.303241
0.269981
0.237053
0.206391
0.417133
0.391864
0.36575
0.337304
0.30578
0.271165
0.235632
0.204263
0.184004
0.180255
0.19742
0.233197
0.283343
0.341303
0.39767
0.443756
0.473114
0.487306
0.49165
0.486975
0.474982
0.457754
0.436405
0.411313
0.382293
0.350024
0.315248
0.279753
0.245157
0.213345
0.483056
0.455783
0.427272
0.396205
0.361901
0.324105
0.284347
0.246798
0.218239
0.205798
0.21575
0.249966
0.301718
0.362981
0.423557
0.473362
0.505166
0.521343
0.526743
0.522149
0.508944
0.489448
0.465204
0.436991
0.405016
0.369504
0.331857
0.293375
0.255755
0.221644
0.554668
0.526575
0.497156
0.465178
0.429943
0.390993
0.34932
0.308281
0.273987
0.254463
0.256612
0.287428
0.341037
0.406633
0.472461
0.526223
0.559767
0.577284
0.582837
0.576864
0.560847
0.537361
0.50844
0.475338
0.438719
0.398957
0.356753
0.314128
0.272575
0.234485
0.637548
0.611
0.58339
0.553479
0.520423
0.483619
0.443682
0.403327
0.367827
0.344872
0.34139
0.368328
0.421984
0.492133
0.563172
0.619641
0.653407
0.670676
0.674632
0.665002
0.643853
0.614
0.57799
0.537585
0.493894
0.447611
0.399247
0.349718
0.301227
0.256427
0.745305
0.724034
0.702135
0.678413
0.65186
0.621823
0.588795
0.555063
0.524857
0.504545
0.500473
0.525022
0.576936
0.64758
0.721038
0.776109
0.807493
0.821802
0.821573
0.80586
0.777519
0.739432
0.694464
0.644651
0.591469
0.535916
0.478258
0.419019
0.359106
0.301816
0.902974
0.891524
0.878962
0.865518
0.849685
0.830847
0.809322
0.787007
0.767054
0.754276
0.75442
0.778745
0.826952
0.891955
0.960188
1.00695
1.03187
1.04058
1.03418
1.01241
0.978293
0.934515
0.883277
0.826312
0.764849
0.700064
0.631885
0.559923
0.484451
0.408114
1.12934
1.12773
1.12914
1.12845
1.12465
1.11715
1.10616
1.09338
1.08159
1.07488
1.07899
1.10159
1.14223
1.19387
1.24434
1.27239
1.28535
1.28611
1.27518
1.25292
1.2221
1.18462
1.14135
1.09211
1.03596
0.973004
0.903169
0.824973
0.737707
0.643662
1.35065
1.35359
1.36758
1.38154
1.38976
1.38933
1.38185
1.37025
1.35855
1.35145
1.35392
1.369
1.39416
1.42199
1.4416
1.43939
1.43501
1.42518
1.41306
1.39746
1.3811
1.36516
1.3498
1.33299
1.31124
1.27862
1.23513
1.17962
1.11005
1.02756
1.35646
1.37094
1.39522
1.41731
1.43011
1.43192
1.4234
1.40958
1.39538
1.38553
1.38401
1.39003
1.39976
1.40704
1.40183
1.37941
1.36228
1.34506
1.33175
1.32125
1.31551
1.31473
1.31909
1.32658
1.33402
1.3372
1.33363
1.32264
1.30272
1.27325
0.15541
0.179305
0.186127
0.188408
0.187669
0.184281
0.178949
0.172328
0.164855
0.156924
0.148687
0.140466
0.132256
0.124601
0.117679
0.112279
0.108928
0.110096
0.116754
0.124903
0.128505
0.124722
0.113233
0.0954728
0.0736967
0.0505506
0.0289789
0.023033
0.0210092
0.0217788
0.24755
0.282868
0.292052
0.291984
0.285674
0.275852
0.264317
0.251991
0.239323
0.226629
0.213909
0.201408
0.188959
0.177392
0.16695
0.158872
0.154328
0.158462
0.172052
0.188821
0.199599
0.199783
0.18711
0.163172
0.131334
0.0953481
0.0609842
0.0370835
0.0304038
0.0302235
0.299486
0.338304
0.354178
0.358558
0.354746
0.346106
0.334618
0.321393
0.307084
0.292211
0.276991
0.261802
0.246721
0.232846
0.220665
0.211454
0.206528
0.211459
0.226446
0.244706
0.25664
0.257311
0.243484
0.216364
0.179175
0.135418
0.0918417
0.0554158
0.0395034
0.0385243
0.3297
0.366103
0.386117
0.395672
0.395893
0.390313
0.380775
0.368517
0.354422
0.339192
0.323287
0.307217
0.291377
0.27699
0.264762
0.255803
0.251303
0.256631
0.271291
0.288687
0.299793
0.299904
0.285384
0.257032
0.217385
0.169714
0.120607
0.075794
0.0496145
0.0426598
0.341856
0.372983
0.397461
0.412737
0.417831
0.416322
0.409792
0.3996
0.386875
0.372523
0.357228
0.341625
0.326415
0.3129
0.301842
0.294126
0.290691
0.296313
0.309917
0.32528
0.334457
0.333211
0.317977
0.289129
0.248674
0.199444
0.147394
0.0973188
0.0626665
0.0489699
0.340152
0.36619
0.392166
0.41202
0.424018
0.427829
0.425109
0.417849
0.407407
0.394928
0.381321
0.367354
0.353995
0.342547
0.333665
0.327984
0.326097
0.331986
0.344133
0.35684
0.363455
0.360191
0.34401
0.314975
0.274619
0.225332
0.1722
0.119171
0.078269
0.0579659
0.330867
0.351739
0.377921
0.401525
0.41827
0.426916
0.428765
0.425127
0.417768
0.408082
0.39715
0.38586
0.375499
0.367204
0.3614
0.358428
0.358412
0.364538
0.374987
0.384691
0.388355
0.382629
0.365248
0.336088
0.296317
0.247939
0.194632
0.140081
0.0952477
0.0692487
0.312411
0.327274
0.353703
0.380766
0.402155
0.415721
0.422324
0.422956
0.419318
0.413154
0.405849
0.398247
0.391951
0.387823
0.385922
0.38622
0.388186
0.394498
0.403074
0.40962
0.410093
0.401655
0.38287
0.353544
0.314592
0.267434
0.214516
0.159695
0.112577
0.0820523
0.283603
0.293786
0.320857
0.351528
0.377303
0.395722
0.407234
0.412358
0.413178
0.411394
0.408374
0.405389
0.404225
0.405202
0.40797
0.411884
0.415827
0.422189
0.428766
0.432155
0.429221
0.418029
0.397732
0.368156
0.330139
0.28389
0.232031
0.177991
0.129746
0.0956881
0.250465
0.257381
0.283815
0.316142
0.345554
0.368603
0.384963
0.394865
0.400436
0.403598
0.4057
0.40808
0.41315
0.420124
0.42811
0.435804
0.441612
0.447827
0.45231
0.45256
0.446199
0.432336
0.410497
0.380588
0.342997
0.297979
0.247521
0.194765
0.146453
0.109658
0.219098
0.221299
0.24555
0.27834
0.310256
0.3368
0.357249
0.371935
0.382432
0.390887
0.398678
0.407264
0.419485
0.433206
0.446702
0.458261
0.465742
0.471569
0.473944
0.47099
0.461395
0.445051
0.421712
0.391419
0.354138
0.31026
0.261334
0.210159
0.162208
0.123722
0.191817
0.187775
0.208224
0.239999
0.273214
0.302463
0.32642
0.345225
0.360464
0.374408
0.388347
0.40416
0.424083
0.444933
0.464066
0.479473
0.488362
0.493569
0.493786
0.487708
0.475151
0.456608
0.431857
0.401096
0.364127
0.321323
0.274063
0.22433
0.176828
0.137625
0.170415
0.159463
0.174419
0.203244
0.236246
0.267224
0.294037
0.316614
0.336403
0.355506
0.375758
0.39959
0.427601
0.455756
0.480509
0.499613
0.5096
0.514023
0.51198
0.503011
0.487849
0.467452
0.441522
0.410258
0.373568
0.331989
0.285936
0.237131
0.190246
0.150815
0.15587
0.139862
0.147754
0.171086
0.201769
0.233013
0.261779
0.287568
0.311608
0.335791
0.362077
0.394359
0.430653
0.466018
0.496287
0.518839
0.529599
0.533111
0.52882
0.51728
0.499946
0.478067
0.451292
0.419529
0.383359
0.342393
0.296862
0.248704
0.202467
0.163143
0.152407
0.13278
0.132625
0.147832
0.173279
0.202491
0.231697
0.259732
0.287436
0.316402
0.348944
0.389116
0.433306
0.475972
0.511625
0.537315
0.54857
0.551099
0.544725
0.531021
0.512
0.489059
0.461767
0.429919
0.393672
0.352482
0.306855
0.259162
0.213547
0.174544
0.159401
0.139108
0.13182
0.138254
0.155457
0.179236
0.206312
0.234974
0.26532
0.298428
0.337307
0.384038
0.435931
0.485848
0.526758
0.555278
0.566808
0.568397
0.560288
0.544941
0.524742
0.501154
0.4739
0.441616
0.404354
0.362099
0.316079
0.268642
0.223583
0.18503
0.178513
0.158709
0.147397
0.144581
0.151141
0.167296
0.188562
0.215356
0.246642
0.283257
0.327884
0.380075
0.438856
0.495917
0.541994
0.57308
0.584793
0.585646
0.576383
0.560049
0.539237
0.515615
0.487817
0.454049
0.414996
0.371396
0.324699
0.277309
0.232706
0.194653
0.21171
0.191215
0.176638
0.167057
0.163209
0.166932
0.18088
0.203014
0.233188
0.27198
0.320572
0.377474
0.442243
0.506616
0.557823
0.591304
0.603317
0.603888
0.594358
0.577864
0.557211
0.532957
0.503151
0.467087
0.425813
0.380546
0.332909
0.285362
0.241086
0.20352
0.256935
0.234674
0.216756
0.201588