/*--------------------------------*- C++ -*----------------------------------*\
| =========                 |                                                 |
| \\      /  F ield         | OpenFOAM: The Open Source CFD Toolbox           |
|  \\    /   O peration     | Version:  5.0                                   |
|   \\  /    A nd           | Web:      www.OpenFOAM.org                      |
|    \\/     M anipulation  |                                                 |
\*---------------------------------------------------------------------------*/
FoamFile
{
    version     2.0;
    format      ascii;
    class       volScalarField;
    location    "1350/air";
    object      nut;
}
// * * * * * * * * * * * * * * * * * * * * * * * * * * * * * * * * * * * * * //

dimensions      [0 2 -1 0 0 0 0];

internalField   nonuniform List<scalar> 
243000
(
0.000132179
0.000136426
0.000134655
0.000131101
0.000126368
0.000121015
0.000115409
0.000109806
0.000104378
9.92481e-05
9.44475e-05
9.00092e-05
8.59116e-05
8.22356e-05
7.90267e-05
7.64669e-05
7.469e-05
7.36756e-05
7.39063e-05
7.48396e-05
7.5403e-05
7.5636e-05
7.52647e-05
7.40652e-05
7.3814e-05
7.22749e-05
0.000319541
0.000312653
0.000288781
0.000287711
0.000568999
0.000609119
0.000620683
0.000622829
0.000618967
0.00061088
0.000599902
0.000587011
0.000572861
0.000557866
0.000542217
0.000526225
0.000510066
0.000494525
0.00048016
0.000468187
0.000459323
0.00045516
0.000453827
0.000452841
0.000450501
0.000444962
0.000434698
0.000419218
0.000395376
0.000372938
0.00034964
0.000323153
0.000293342
0.000275355
0.000607542
0.000648755
0.000663441
0.000667434
0.000664462
0.000656851
0.000645999
0.000632965
0.000618458
0.000602977
0.000586785
0.000570349
0.000553944
0.000538521
0.000524744
0.000513979
0.000506862
0.000504177
0.000504162
0.000504541
0.000502864
0.000497405
0.000486775
0.000470446
0.00044876
0.000423109
0.00039428
0.000361336
0.000326903
0.000297572
0.000616925
0.00066139
0.00068175
0.000689163
0.000688924
0.000683454
0.000674197
0.000662303
0.000648575
0.000633627
0.000617831
0.000601802
0.000585924
0.000571324
0.000558771
0.000549773
0.000544834
0.000544209
0.000545642
0.000546799
0.000545246
0.000539476
0.000528359
0.000511407
0.0004891
0.000462146
0.000431296
0.000395665
0.000358565
0.000324712
0.000609906
0.000655826
0.000681778
0.000695
0.000699089
0.000696717
0.000689904
0.000679907
0.000667658
0.000653893
0.000639107
0.000624052
0.000609245
0.000595975
0.000585104
0.000578263
0.000575752
0.000577264
0.000580092
0.00058181
0.000580161
0.000573939
0.000562317
0.000544932
0.000522202
0.00049469
0.000463046
0.000426342
0.000387445
0.000351308
0.000591467
0.000639514
0.00067137
0.000689928
0.000698579
0.000700077
0.000696277
0.000688691
0.000678403
0.000666263
0.000652915
0.000639241
0.000625899
0.000614327
0.000605484
0.000601086
0.000601139
0.000604755
0.000608872
0.000611036
0.000609223
0.000602517
0.000590414
0.000572716
0.000549802
0.000522149
0.000490342
0.00045348
0.000413463
0.000375988
0.000563737
0.00061506
0.000652407
0.000676408
0.000690034
0.000695739
0.000695486
0.000690666
0.000682556
0.000672361
0.000660809
0.000648823
0.000637241
0.000627656
0.000621107
0.000619387
0.000622034
0.000627697
0.000633006
0.000635551
0.000633564
0.000626405
0.000613865
0.000595931
0.000572989
0.000545461
0.000513847
0.000477326
0.000436826
0.000398546
0.000531187
0.000585735
0.000627247
0.000656436
0.000675041
0.000685182
0.000688662
0.000687043
0.000681635
0.000673617
0.000663896
0.000653838
0.000644244
0.000636878
0.000632843
0.000633962
0.000639212
0.00064684
0.00065325
0.000656148
0.000654012
0.000646462
0.000633542
0.000615438
0.000592558
0.000565309
0.0005341
0.000498226
0.000457958
0.000419121
0.00049812
0.000555176
0.000600306
0.000632807
0.000655287
0.000669676
0.000676971
0.000678728
0.000676223
0.000670692
0.00066321
0.000655139
0.000647654
0.000642693
0.000641339
0.000645402
0.000653245
0.000662744
0.000670184
0.000673424
0.000671187
0.000663322
0.0006501
0.000631883
0.000609128
0.000582239
0.000551559
0.000516491
0.000476733
0.000437734
0.000469273
0.000522903
0.000571752
0.000608237
0.000633955
0.000650991
0.0006616
0.000666623
0.000667161
0.000664315
0.000659212
0.000653352
0.000648086
0.00064563
0.000647103
0.000654138
0.000664575
0.000675842
0.000684248
0.000687835
0.000685561
0.000677472
0.000664033
0.000645764
0.000623181
0.000596706
0.000566696
0.000532299
0.000493185
0.000454493
0.000452583
0.000490808
0.000541051
0.000581808
0.000611466
0.000631699
0.000644691
0.000651917
0.000655263
0.000655135
0.000652507
0.000648975
0.000646022
0.00064615
0.000650514
0.00066053
0.000673505
0.000686472
0.000695789
0.000699739
0.000697504
0.00068929
0.00067573
0.000657473
0.000635107
0.000609118
0.000579637
0.000545853
0.000507453
0.000469404
0.00045736
0.000466968
0.000509519
0.000553037
0.000587057
0.000611135
0.000627095
0.000636679
0.000641809
0.000643886
0.000643641
0.000642438
0.000641866
0.000644587
0.00065188
0.000664851
0.000680269
0.000694893
0.000705079
0.000709421
0.000707307
0.000699075
0.000685495
0.000667323
0.000645234
0.000619681
0.000590657
0.000557476
0.00051997
0.00048264
0.000488708
0.000466019
0.000484438
0.000523227
0.000560436
0.000588733
0.00060831
0.000620771
0.000628078
0.000631746
0.000633247
0.000634182
0.000635931
0.000641239
0.000651449
0.000667313
0.000685063
0.000701281
0.000712337
0.000717107
0.000715206
0.00070707
0.000693576
0.00067556
0.000653812
0.000628635
0.000600025
0.000567375
0.000531032
0.000494448
0.000531477
0.000499888
0.000481134
0.000499365
0.000533159
0.000564473
0.000587965
0.000603842
0.000613777
0.000619394
0.000622308
0.000624715
0.000628537
0.000636361
0.00064942
0.000668078
0.000688034
0.000705773
0.000717734
0.000722983
0.000721392
0.000713466
0.000700153
0.000682439
0.000660999
0.000636189
0.000607944
0.000575746
0.000540716
0.000504936
0.000572951
0.00054761
0.000511659
0.000495663
0.000511788
0.000540122
0.000566266
0.000585697
0.000598673
0.000606614
0.00061124
0.000614761
0.000620061
0.000630186
0.000645959
0.000667271
0.000689244
0.000708463
0.000721394
0.000727194
0.000726016
0.000718407
0.000705425
0.000688069
0.000666974
0.000642523
0.000614604
0.000582797
0.000549155
0.000514216
0.000613398
0.000592066
0.000561381
0.000524428
0.000508783
0.000521586
0.000545005
0.00056667
0.000582695
0.00059326
0.000599892
0.000604805
0.000610938
0.000622955
0.000641209
0.000664997
0.000689046
0.000709504
0.000723372
0.000729869
0.000729206
0.000722045
0.000709547
0.000692587
0.00067188
0.000647784
0.000620177
0.000589084
0.000556618
0.000522456
0.000652995
0.000634069
0.000608202
0.000570143
0.000533416
0.000518813
0.000529023
0.000548361
0.000566217
0.000579335
0.000588176
0.000594734
0.000601972
0.00061497
0.000635316
0.000661338
0.000687198
0.000709137
0.000723911
0.000731113
0.000731077
0.00072454
0.000712572
0.000696106
0.000675841
0.000652113
0.000624823
0.000594862
0.000563347
0.000529837
0.000691881
0.000674128
0.000650655
0.000618065
0.000576142
0.000539366
0.000525981
0.00053447
0.000550504
0.000565169
0.000576125
0.000584488
0.000593046
0.000606548
0.00062845
0.000656393
0.000683915
0.000707152
0.000723056
0.000731116
0.000731754
0.000725927
0.000714607
0.000698738
0.000678986
0.000655667
0.000628715
0.000600047
0.000569427
0.000536484
0.000730009
0.00071262
0.000690316
0.000661169
0.000621793
0.000576589
0.000541336
0.000530344
0.000538139
0.000551671
0.000563993
0.000574101
0.000584107
0.000598395
0.000620868
0.000650281
0.000679262
0.00070376
0.000720768
0.000729805
0.000731282
0.000726254
0.000715758
0.000700613
0.000681464
0.000658605
0.000632606
0.000604866
0.000574983
0.000542509
0.000767296
0.000749735
0.000727836
0.000700117
0.000664313
0.000619178
0.000571988
0.000540212
0.000532714
0.000540515
0.000552385
0.000563738
0.000575174
0.000590422
0.000612919
0.000643168
0.000673336
0.000699037
0.000717186
0.000727312
0.000729783
0.000725675
0.000716141
0.000701878
0.000683435
0.00066111
0.000636271
0.000609384
0.000580118
0.000548006
0.00080362
0.000785549
0.000763618
0.000736694
0.000703497
0.000660731
0.000610002
0.00056333
0.000537337
0.000533984
0.000542336
0.000553773
0.000566361
0.000582606
0.000605342
0.000635358
0.000666301
0.000693067
0.000712361
0.00072368
0.000727318
0.000724335
0.000715817
0.000702588
0.000685005
0.000663626
0.000639819
0.000613694
0.000584933
0.000553075
0.000838836
0.000820078
0.000798005
0.000772514
0.000740509
0.000699671
0.000649178
0.000594904
0.000552582
0.000534259
0.000535226
0.000544835
0.000557886
0.000574976
0.000598051
0.000627512
0.000658409
0.000685945
0.000706325
0.0007189
0.000723878
0.000722173
0.000714863
0.000702801
0.000686277
0.00066621
0.000643389
0.000617933
0.000589563
0.000557833
0.000872924
0.000853537
0.000831954
0.000806911
0.000775498
0.000735941
0.000686759
0.000629772
0.000576211
0.000542375
0.00053253
0.000537816
0.000550185
0.000567723
0.0005911
0.000620191
0.000650744
0.000678255
0.000699267
0.000713009
0.000719446
0.000719166
0.000713321
0.000702584
0.00068763
0.000668938
0.000647105
0.000622284
0.000594187
0.000562436
0.000906195
0.000887433
0.00086616
0.00084041
0.000808886
0.000770041
0.000722041
0.000664816
0.00060501
0.000558068
0.000535543
0.000533848
0.000543968
0.00056128
0.000584765
0.000613576
0.00064385
0.00067136
0.000692994
0.000707756
0.000715542
0.000716717
0.000712343
0.000702986
0.000689426
0.000672038
0.000651179
0.000626963
0.000599086
0.000567159
0.000940496
0.00092146
0.00089875
0.000872251
0.00084068
0.000802408
0.000755636
0.000699374
0.000636981
0.000580682
0.000545569
0.000534751
0.000540711
0.000556849
0.000580112
0.000608624
0.000638539
0.000666
0.000688135
0.000703835
0.000712892
0.000715477
0.000712397
0.000704424
0.000692163
0.00067598
0.000656069
0.000632415
0.000604659
0.000572376
0.00096845
0.000949861
0.000927722
0.00090194
0.000871318
0.000834402
0.000789519
0.000735307
0.000673068
0.000611445
0.000565676
0.000544678
0.000544453
0.000558275
0.000580852
0.000608905
0.000638387
0.000665595
0.000687911
0.000704127
0.000713872
0.000717497
0.000715624
0.000708788
0.000697603
0.00068244
0.00066337
0.00064017
0.000612254
0.000579102
0.000995849
0.000978156
0.000957688
0.000933643
0.000905031
0.000870652
0.000829002
0.000778626
0.000719614
0.000657557
0.00060542
0.000575298
0.000567993
0.000578148
0.000599249
0.00062599
0.000653892
0.000679627
0.000700849
0.000716459
0.000726017
0.000729806
0.000728339
0.000721999
0.00071134
0.000696684
0.000677961
0.000654844
0.000626471
0.00059173
0.00103311
0.00101658
0.000997929
0.000976636
0.000951997
0.000922961
0.000888112
0.000846045
0.000796285
0.000741975
0.000692786
0.000660452
0.000648907
0.000654923
0.000672632
0.000695286
0.000718044
0.000738769
0.000755514
0.000767324
0.000773903
0.000775484
0.000772336
0.000764759
0.000753124
0.000737634
0.000718241
0.000694308
0.000664537
0.000626701
0.00110321
0.0010904
0.00107758
0.00106452
0.00105056
0.00103457
0.00101504
0.000990856
0.000961422
0.000927945
0.000896635
0.000875439
0.000867195
0.000870532
0.000881474
0.000894997
0.000907192
0.000917394
0.000924517
0.000928074
0.000928145
0.000924617
0.000917667
0.000907338
0.000893435
0.000875883
0.000855458
0.000830977
0.00080121
0.000763655
0.00133439
0.00133317
0.00133558
0.0013376
0.00133856
0.00133781
0.00133472
0.00132914
0.00132029
0.00130726
0.00129489
0.00128596
0.00128078
0.00127953
0.00128079
0.00128405
0.00128641
0.00128899
0.00129104
0.0012929
0.00129436
0.00129535
0.00129554
0.0012946
0.00129033
0.00128196
0.00127394
0.00126246
0.00124732
0.00122841
0.00016043
0.00016821
0.000167404
0.000163651
0.000158207
0.00015186
0.000145122
0.000138348
0.000131741
0.000125459
0.000119562
0.000114149
0.000109238
0.000104999
0.000101505
9.90062e-05
9.75814e-05
9.73663e-05
9.81749e-05
9.94874e-05
0.000100441
0.000100221
9.82084e-05
9.40867e-05
8.78754e-05
7.99258e-05
0.000325825
0.000310384
0.000307017
7.27016e-05
0.000584168
0.000666595
0.00065153
0.000612304
0.000567926
0.000524478
0.000485515
0.00045145
0.000421799
0.000396234
0.000373949
0.000355049
0.000338694
0.000326052
0.000316445
0.00031102
0.000308193
0.000308805
0.000310238
0.000312163
0.000314005
0.000314625
0.000310091
0.000298772
0.000281298
0.000257038
0.000243692
0.000269421
0.000342079
0.000304515
0.000904095
0.00105658
0.00107608
0.00104523
0.000993393
0.000935595
0.000879637
0.000828402
0.00078238
0.0007419
0.000706193
0.000675995
0.000650264
0.000631502
0.000618734
0.000613361
0.000611554
0.000612632
0.000610136
0.000604497
0.000597262
0.00058827
0.000573455
0.000548762
0.000513174
0.000466564
0.000416078
0.000376301
0.000385822
0.000407723
0.00106801
0.00126992
0.00134511
0.00134305
0.00130602
0.00125386
0.00119726
0.00114211
0.00109056
0.00104404
0.00100263
0.000968056
0.000939938
0.000921738
0.000912369
0.00091311
0.000917096
0.000919989
0.000913232
0.000898569
0.000878806
0.000856839
0.00082804
0.000787797
0.000734426
0.000667543
0.000592226
0.00051428
0.000466918
0.000457372
0.00114026
0.00135521
0.00147122
0.00151529
0.00151152
0.00147747
0.00143068
0.0013806
0.00133169
0.00128623
0.0012457
0.00121295
0.00118878
0.0011773
0.00117741
0.00118982
0.00120268
0.00120843
0.00119783
0.00117475
0.00114276
0.00110756
0.00106538
0.00101107
0.000942029
0.000858533
0.000764738
0.000661932
0.000575412
0.000525439
0.00115425
0.0013798
0.00152635
0.00160328
0.00162934
0.00162072
0.00159047
0.00155088
0.00151092
0.00147189
0.00143744
0.00141169
0.00139666
0.00139736
0.00141223
0.0014406
0.00146399
0.00147278
0.00145857
0.0014279
0.00138486
0.00133744
0.00128321
0.00121644
0.00113516
0.00103912
0.000931664
0.000812544
0.000700885
0.000616337
0.00112052
0.00134057
0.00151161
0.00162067
0.00167836
0.00169692
0.00168902
0.00166786
0.00163641
0.0016074
0.00158336
0.0015689
0.00156739
0.00158476
0.00161942
0.00166697
0.00170119
0.00171258
0.001695
0.00165752
0.0016047
0.00154651
0.00148169
0.00140461
0.00131388
0.00120859
0.00109158
0.000961662
0.000834434
0.00072306
0.00101997
0.00123637
0.00143496
0.00157872
0.00166951
0.00171736
0.00173313
0.00173071
0.00171607
0.00170088
0.00168885
0.00168928
0.00170514
0.0017431
0.00180218
0.00187093
0.00191578
0.00192878
0.00190812
0.00186471
0.00180337
0.00173596
0.00166136
0.00157638
0.00147864
0.00136707
0.0012435
0.00110646
0.000969507
0.000838091
0.000900112
0.00109373
0.0013065
0.00148557
0.00161121
0.00169024
0.0017308
0.00174908
0.0017539
0.00175558
0.00176028
0.00177844
0.0018138
0.00187659
0.00196298
0.00205395
0.00210943
0.00212297
0.00209954
0.00205107
0.00198259
0.00190738
0.00182454
0.00173304
0.00163016
0.00151468
0.00138727
0.00124642
0.00110355
0.000955869
0.000786569
0.000940088
0.00114738
0.00134917
0.001509
0.00162196
0.0016883
0.00172929
0.00175508
0.00177644
0.00180086
0.00183925
0.00189567
0.00198812
0.00210373
0.00221717
0.00228368
0.0022971
0.00227092
0.00221845
0.00214432
0.00206182
0.0019727
0.001876
0.00176949
0.00165186
0.0015234
0.00138108
0.00123385
0.00107193
0.000703675
0.000800394
0.00098132
0.0011877
0.00137115
0.00151363
0.00161054
0.0016778
0.00172608
0.00176835
0.00181414
0.00187504
0.00195639
0.00208084
0.00222647
0.00236199
0.00243984
0.00245292
0.00242427
0.00236877
0.00229042
0.00220173
0.00210755
0.00200679
0.0018979
0.00177976
0.00165102
0.00150733
0.00135804
0.00118282
0.000666913
0.000697195
0.000830777
0.00102059
0.00121287
0.00137714
0.00150113
0.00159599
0.00167174
0.00173631
0.00180417
0.00188887
0.00199776
0.00215491
0.00233254
0.00248931
0.00257634
0.00259252
0.00256182
0.00250387
0.00242181
0.00232919
0.00223089
0.00212698
0.00201672
0.0018991
0.00176901
0.00162519
0.00147391
0.0012887
0.000686143
0.0006553
0.000719365
0.000869861
0.00105189
0.00122571
0.00137031
0.00149004
0.0015918
0.00168297
0.0017745
0.00188339
0.00202227
0.00221508
0.00242331
0.00259982
0.00269499
0.00271438
0.00268393
0.00262547
0.00254247
0.00244701
0.00234462
0.0022381
0.00212791
0.00200876
0.0018782
0.00173491
0.00158073
0.00139132
0.000760145
0.000685721
0.000678765
0.000762838
0.000910578
0.00107589
0.0012301
0.00136887
0.00149304
0.00160893
0.00172707
0.00186117
0.00203208
0.00226111
0.00249894
0.00269395
0.0027982
0.0028207
0.0027907
0.00273445
0.00265212
0.00255517
0.00245065
0.00234255
0.00223077
0.00211052
0.00197977
0.00183777
0.00167918
0.00148511
0.000890618
0.000789512
0.000728671
0.000730735
0.000818136
0.00094904
0.00109619
0.00124287
0.00138302
0.00151994
0.00166286
0.00182405
0.00202888
0.00229361
0.00255998
0.00277184
0.00288517
0.00291464
0.00288672
0.00283209
0.00275002
0.00265352
0.00254904
0.00244041
0.00232687
0.00220564
0.00207498
0.00193544
0.00177027
0.00157063
0.00108145
0.000963
0.000866212
0.00080203
0.000797105
0.000872062
0.000987899
0.00112497
0.00127098
0.00142286
0.00158693
0.00177416
0.0020134
0.00231282
0.00260621
0.0028343
0.00295547
0.00299363
0.00297093
0.00291895
0.00283848
0.00274338
0.00264085
0.00253175
0.00241713
0.00229534
0.00216566
0.00202586
0.00185395
0.00164818
0.0013335
0.00120389
0.00108163
0.000969583
0.000889144
0.000872719
0.000929474
0.00103289
0.00116872
0.00132594
0.00150507
0.00171634
0.00198753
0.0023192
0.00263751
0.00288057
0.00301309
0.00305725
0.0030432
0.00299523
0.00291825
0.00282526
0.00272455
0.00261693
0.00250248
0.00238101
0.00225381
0.00210864
0.00193017
0.00171798
0.00164103
0.00150322
0.00136109
0.00121424
0.001075
0.000973531
0.000941874
0.000986692
0.00109058
0.00123879
0.00142405
0.00165589
0.00195426
0.00231293
0.00265329
0.00291033
0.0030571
0.00311004
0.00310351
0.00306049
0.00298872
0.00289869
0.0028008
0.00269647
0.00258397
0.00246562
0.00233939
0.00218615
0.00200003
0.00178085
0.00198039
0.00184174
0.00168532
0.00151333
0.0013314
0.0011615
0.00104146
0.00100304
0.00105119
0.00117212
0.00135247
0.00159724
0.00191595
0.00229373
0.00265246
0.00292189
0.00307967
0.00314707
0.0031505
0.00311432
0.00304891
0.00296457
0.00287272
0.00277281
0.00266483
0.00254921
0.00241922
0.00225887
0.00206464
0.00183793
0.00233419
0.00219513
0.00203185
0.00184313
0.00163141
0.00141136
0.00121679
0.00109168
0.00106345
0.00113655
0.00129777
0.00154453
0.00187455
0.00226263
0.00263212
0.00291183
0.00308001
0.00316475
0.00318012
0.00315373
0.00309808
0.00302555
0.00294191
0.00284936
0.00274702
0.00263196
0.00249508
0.00232746
0.002125
0.0018904
0.00268226
0.00254406
0.00237835
0.00217941
0.00194809
0.00169366
0.00144341
0.00124216
0.00113362
0.00113937
0.0012652
0.00150173
0.00183036
0.00221924
0.00258719
0.00287165
0.0030568
0.0031543
0.00318214
0.00317047
0.00312843
0.00306665
0.00299186
0.00290796
0.00281351
0.00270421
0.00256337
0.0023904
0.00218099
0.00193912
0.00300007
0.0028652
0.00269971
0.0024961
0.00225373
0.00197832
0.00169082
0.00143143
0.00124973
0.00118551
0.00125342
0.00145722
0.00176728
0.00213824
0.00249348
0.00278086
0.00297762
0.00309216
0.00313878
0.00314485
0.00312202
0.00307639
0.00301591
0.00294448
0.00285953
0.00275435
0.00261648
0.00244062
0.00222912
0.00198278
0.00325827
0.00312912
0.00296656
0.00276386
0.00251865
0.00223404
0.00192574
0.00162772
0.00138812
0.00125621
0.00125842
0.00141462
0.00168532
0.00201522
0.00233685
0.00260987
0.00281422
0.00294686
0.00301353
0.00304311
0.0030466
0.00302518
0.00298648
0.00293441
0.00286591
0.00277119
0.00264309
0.00247514
0.00226076
0.00201487
0.00342349
0.00330149
0.00314747
0.00295225
0.00271216
0.0024285
0.00211336
0.00179475
0.00151539
0.00132533
0.00126154
0.00133904
0.00154989
0.00181911
0.00209067
0.00233895
0.00254391
0.00268313
0.00277251
0.00282859
0.00286378
0.00287354
0.00286419
0.00283943
0.00279723
0.00272891
0.00262022
0.00247064
0.00227549
0.00203563
0.0034616
0.00335214
0.00321475
0.00303443
0.00280727
0.00253403
0.00222526
0.00190409
0.00160604
0.00137476
0.00124866
0.00124254
0.00136329
0.00156707
0.0017854
0.0020043
0.00219219
0.002332
0.00243597
0.00251352
0.00257415
0.00261142
0.00263086
0.00263535
0.00262357
0.00258834
0.00251708
0.00239593
0.00222912
0.00202065
0.00337735
0.00328488
0.00316608
0.00300627
0.00280045
0.00255006
0.00226632
0.00196864
0.00168451
0.00144694
0.00128839
0.00122431
0.00126634
0.00139773
0.00157108
0.00175017
0.00190191
0.00202583
0.00212335
0.00220448
0.00226718
0.00231145
0.00234126
0.00235904
0.00236427
0.00235185
0.00231171
0.00223159
0.0020972
0.00192177
0.00319371
0.00312918
0.00303904
0.00291284
0.00274479
0.00253876
0.00230777
0.00206701
0.00183628
0.00163655
0.0014916
0.00141174
0.00141252
0.00148831
0.00161173
0.0017403
0.00184744
0.00193654
0.00201124
0.00207048
0.00211256
0.00214001
0.00215573
0.00216147
0.0021574
0.00214084
0.00210456
0.00203852
0.00192957
0.00176534
0.00302125
0.00299413
0.00294181
0.00285893
0.00274205
0.00259632
0.00243307
0.00226437
0.00210232
0.00195748
0.00184447
0.00177257
0.00175896
0.00179862
0.00187539
0.00195782
0.00202554
0.00208374
0.00213413
0.00217046
0.00219375
0.0022057
0.00220809
0.00220122
0.0021845
0.00215661
0.0021123
0.00204159
0.00193288
0.00176967
0.0028853
0.0028764
0.00286554
0.0028332
0.00277558
0.00269402
0.00259355
0.00248709
0.00238082
0.00228055
0.00219662
0.00213881
0.00211772
0.00213136
0.00216951
0.00221578
0.0022549
0.00229244
0.00232648
0.0023533
0.00237326
0.0023871
0.00239545
0.00239805
0.0023934
0.00237977
0.00235341
0.00230517
0.0022281
0.0021102
0.00281414
0.00282009
0.00282485
0.00281335
0.00278565
0.00274509
0.00269233
0.00263087
0.00256578
0.00250075
0.00244505
0.00240297
0.00237889
0.00237442
0.00238433
0.0024058
0.00242744
0.00245035
0.00247465
0.0024988
0.00252172
0.00254323
0.00256294
0.00258068
0.00259499
0.00260559
0.00261024
0.00260034
0.00257779
0.00253858
0.000185832
0.000193496
0.000191113
0.000186414
0.000180108
0.000172873
0.000165248
0.000157615
0.000150198
0.00014318
0.000136621
0.000130638
0.000125227
0.000120595
0.00011681
0.000114177
0.000112795
0.000113152
0.000115367
0.000118512
0.000120876
0.000121131
0.000118414
0.000112286
0.000102732
8.98607e-05
7.39301e-05
0.000310387
7.20947e-05
7.64983e-05
0.000756626
0.000878619
0.000889839
0.000849466
0.000793599
0.000736885
0.000685589
0.000640529
0.000601013
0.000566555
0.000535756
0.000508794
0.000483804
0.000463035
0.00044465
0.000430799
0.000419329
0.000416547
0.000420027
0.000429311
0.000440463
0.000448809
0.000444395
0.000421213
0.000382642
0.000333096
0.000279713
0.000279358
0.000307911
0.000323692
0.00119221
0.00140958
0.00147968
0.00146433
0.00140942
0.00134028
0.0012707
0.0012054
0.00114531
0.00109118
0.00104192
0.000998589
0.000958819
0.000926644
0.000899341
0.000878721
0.000859724
0.000850128
0.00084284
0.000840151
0.000841348
0.000841285
0.000820043
0.000775316
0.000703858
0.000609645
0.000506063
0.000422559
0.000410185
0.00047182
0.00147416
0.00174786
0.00186311
0.00188035
0.00184924
0.00179076
0.00172392
0.00165628
0.00159093
0.00153039
0.00147501
0.00142716
0.00138521
0.00135365
0.00132919
0.00131171
0.00129197
0.00127505
0.0012535
0.00123415
0.00121931
0.00120502
0.00116988
0.00110293
0.00100283
0.000874283
0.000731133
0.000593284
0.000515026
0.000535731
0.00161937
0.00189274
0.00205191
0.00213167
0.00214266
0.00210554
0.0020528
0.00199375
0.00193323
0.00187576
0.00182373
0.00178101
0.00174673
0.00172568
0.00171326
0.00170616
0.0016887
0.00166266
0.00162537
0.00158896
0.00155795
0.00152839
0.00147995
0.00139709
0.00127732
0.00112456
0.000953287
0.00077796
0.000647492
0.00061739
0.0017118
0.00197256
0.0021561
0.00226595
0.00230991
0.0023097
0.00227948
0.0022362
0.00218729
0.00213995
0.00209877
0.00206886
0.00205071
0.00204898
0.00205593
0.00206313
0.00204792
0.00201034
0.00195628
0.00190359
0.00185736
0.00181359
0.00175367
0.00166017
0.0015283
0.00136064
0.00117012
0.000969477
0.000801394
0.000725688
0.001759
0.00199191
0.00218285
0.00231714
0.00239449
0.00242534
0.00242292
0.0023996
0.00236649
0.00233486
0.00231127
0.00230091
0.0023064
0.00233133
0.00236353
0.00238735
0.00237168
0.00232043
0.00224959
0.002182
0.00212125
0.00206523
0.00199556
0.00189522
0.00175713
0.00158206
0.00138061
0.00116374
0.000969292
0.000855941
0.00172028
0.00192725
0.00212958
0.00229044
0.00240232
0.0024662
0.0024931
0.00249571
0.00248507
0.00247568
0.00247044
0.00248575
0.00252108
0.00257882
0.00264231
0.00268273
0.00266266
0.00259633
0.0025099
0.00242883
0.0023547
0.00228807
0.00221022
0.00210564
0.00196552
0.00178878
0.00158468
0.00135899
0.00114659
0.00100023
0.0016011
0.00178985
0.00200387
0.00219424
0.00234429
0.00244274
0.00250157
0.00253232
0.00254791
0.00256318
0.00258565
0.00263004
0.00270097
0.00279815
0.00289635
0.00295162
0.00292369
0.00284148
0.00274205
0.0026486
0.00256303
0.00248617
0.00240206
0.002295
0.00215569
0.00198232
0.00177776
0.00154739
0.00132412
0.00114942
0.00146292
0.00162023
0.00183528
0.00204863
0.00222932
0.00236314
0.0024567
0.00251817
0.00256341
0.00260711
0.0026619
0.00274043
0.00285264
0.00299459
0.003127
0.00319527
0.00315703
0.00305974
0.00295027
0.00284591
0.00275156
0.00266556
0.00257575
0.00246704
0.00233018
0.00216175
0.00195806
0.00172762
0.00149861
0.00130146
0.00132899
0.00143738
0.00163768
0.00186451
0.00207227
0.0022393
0.00236572
0.00246003
0.00253783
0.0026141
0.00270429
0.00282099
0.00297493
0.00317071
0.00333612
0.00341417
0.00336514
0.00325493
0.00313872
0.00302526
0.00292414
0.00283039
0.00273547
0.0026253
0.00249277
0.0023261
0.00212617
0.00190021
0.00166879
0.00145381
0.00122258
0.00126448
0.00142989
0.00165573
0.00188308
0.00207966
0.00223855
0.0023663
0.00247738
0.00258902
0.00271781
0.0028769
0.00308406
0.00332957
0.0035244
0.00360841
0.0035506
0.00343109
0.00331088
0.00319089
0.00308309
0.00298438
0.0028851
0.00277293
0.00264178
0.00247878
0.00228385
0.00206345
0.00183315
0.00160709
0.00116047
0.00113051
0.00123995
0.00144321
0.00167624
0.00189493
0.00208341
0.00224412
0.00238964
0.00253745
0.00270724
0.00291228
0.00317766
0.00347254
0.00369162
0.00377873
0.00371549
0.0035915
0.00346995
0.00334662
0.00323363
0.00313219
0.00302843
0.00291516
0.00278283
0.00262273
0.00243303
0.00221927
0.00198947
0.00175906
0.00117725
0.00107628
0.00110879
0.00126028
0.00147521
0.00170136
0.00191173
0.00210192
0.00228121
0.00246635
0.00267703
0.00293124
0.00325762
0.0036012
0.00383677
0.00392566
0.00386179
0.00373863
0.00361843
0.00349439
0.00338044
0.00327421
0.00316699
0.00305196
0.00291876
0.00276091
0.00257647
0.00236743
0.00213743
0.00190267
0.00126933
0.00112751
0.00108037
0.00115506
0.00131703
0.00152482
0.00174083
0.0019513
0.00216021
0.00238155
0.00263295
0.00293883
0.00332372
0.00370607
0.00395756
0.00404941
0.00399092
0.00387389
0.00375826
0.00363634
0.00352169
0.00341257
0.00330363
0.00318629
0.00305249
0.00289667
0.00271624
0.0025079
0.00227708
0.00203776
0.00146609
0.00129977
0.00119376
0.00116937
0.00125018
0.00140392
0.00159652
0.00180895
0.00203735
0.00228991
0.00258062
0.00294152
0.00337501
0.00378299
0.00405123
0.00414951
0.00410296
0.0039972
0.00389
0.00377379
0.00365877
0.00354959
0.00344098
0.00332268
0.00318757
0.00303291
0.00285233
0.00264207
0.00240894
0.00216467
0.00176638
0.00158934
0.00144466
0.00134554
0.00131568
0.00137396
0.00151315
0.00169697
0.00192631
0.0021992
0.00252794
0.00293879
0.00340861
0.00383428
0.00411796
0.00422427
0.00419598
0.00410643
0.00401143
0.00390437
0.00379388
0.00368767
0.00358319
0.00346655
0.00332702
0.00316933
0.00298409
0.00277031
0.0025334
0.00228352
0.00214957
0.00196927
0.0017997
0.00164575
0.0015263
0.0014725
0.00150378
0.00163951
0.00184255
0.00212014
0.0024811
0.00292813
0.00341879
0.00385209
0.00414756
0.00426911
0.00426494
0.00419664
0.00411736
0.00401862
0.00391748
0.00381835
0.00371818
0.00360464
0.00346553
0.00330154
0.00311091
0.00289248
0.00265064
0.00239445
0.00257863
0.00239762
0.0022112
0.00201975
0.00183512
0.00168538
0.00160986
0.00163942
0.00179875
0.00206321
0.00243927
0.00290069
0.00339681
0.00383903
0.00413565
0.00427582
0.00430046
0.00425803
0.00419806
0.00411107
0.00401766
0.00392364
0.00382759
0.00371869
0.00358825
0.00342281
0.00322915
0.00300684
0.00276
0.00249734
0.00301262
0.00283024
0.00263193
0.0024154
0.00218712
0.00196778
0.00179779
0.00172769
0.00179193
0.0020183
0.00239001
0.00285003
0.0033309
0.00374938
0.00406653
0.00422946
0.00428646
0.00427302
0.00423519
0.00416487
0.00408356
0.00399824
0.0039074
0.00380295
0.00367708
0.00352171
0.00333145
0.00310896
0.00285918
0.00259121
0.00341288
0.00322823
0.0030215
0.00278883
0.00253293
0.00226771
0.00202722
0.00186537
0.00183464
0.0019844
0.00229417
0.00272
0.00318269
0.00360774
0.00392058
0.0041073
0.00419914
0.00421369
0.00419965
0.00415256
0.00408947
0.00401869
0.00394013
0.00384651
0.00372777
0.00358241
0.00340425
0.00318919
0.00294217
0.00267263
0.00374543
0.00355917
0.00334751
0.0031056
0.00283371
0.00254069
0.00225291
0.00201877
0.00190005
0.00194585
0.00219768
0.00257177
0.00298878
0.00337819
0.00368058
0.00388537
0.00400974
0.00405349
0.00406598
0.00404849
0.0040109
0.00396229
0.0039039
0.00382987
0.00372689
0.00359575
0.00342708
0.00322658
0.00299476
0.00273226
0.00398187
0.00379709
0.00358515
0.00334043
0.00306168
0.00275426
0.00243815
0.00215303
0.00195664
0.00190385
0.0020466
0.00235229
0.00271437
0.00306364
0.00335218
0.00357039
0.00371816
0.00378956
0.00382899
0.00384301
0.0038342
0.00381207
0.00377887
0.00373017
0.00365507
0.00354217
0.00339798
0.00321413
0.00299052
0.00274405
0.00410166
0.00392449
0.00371925
0.00347956
0.00320312
0.00289341
0.00256617
0.00225322
0.00200281
0.00186932
0.00189403
0.00209633
0.00240212
0.00271657
0.00298755
0.00321216
0.00336601
0.00345814
0.00351966
0.0035587
0.00357378
0.00357431
0.0035634
0.00353823
0.00349055
0.00340879
0.00328549
0.00312907
0.00294031
0.00271578
0.00409894
0.00393926
0.00375159
0.0035285
0.0032671
0.00297079
0.00265384
0.00234271
0.00207573
0.00189838
0.00183718
0.00193986
0.00216529
0.00244407
0.00269049
0.0029036
0.00304655
0.00314299
0.0032161
0.00326423
0.0032893
0.00329925
0.00329777
0.00328356
0.00325098
0.00319088
0.00309508
0.00295663
0.0027885
0.00259573
0.00399606
0.00386786
0.0037136
0.00352344
0.0032948
0.00303282
0.00275247
0.00247624
0.00223317
0.00205511
0.00195588
0.00198844
0.00213446
0.00234998
0.00256253
0.00274005
0.00285909
0.00294284
0.00301134
0.00305281
0.00307338
0.00307872
0.00307215