/*--------------------------------*- C++ -*----------------------------------*\
| =========                 |                                                 |
| \\      /  F ield         | OpenFOAM: The Open Source CFD Toolbox           |
|  \\    /   O peration     | Version:  5.0                                   |
|   \\  /    A nd           | Web:      www.OpenFOAM.org                      |
|    \\/     M anipulation  |                                                 |
\*---------------------------------------------------------------------------*/
FoamFile
{
    version     2.0;
    format      ascii;
    class       volScalarField;
    location    "850/porous";
    object      T;
}
// * * * * * * * * * * * * * * * * * * * * * * * * * * * * * * * * * * * * * //

dimensions      [0 0 0 1 0 0 0];

internalField   nonuniform List<scalar> 
36000
(
400
400
400
400
399.999
399.579
399.201
398.85
398.517
398.197
397.884
397.579
397.278
396.981
396.688
396.399
396.112
395.829
395.549
395.273
394.999
394.727
394.453
394.176
393.898
393.621
393.346
393.073
392.803
392.536
392.274
392.018
391.767
391.524
391.299
391.824
392.179
392.449
392.669
392.855
400
400
400
400
399.999
399.629
399.296
398.989
398.701
398.426
398.16
397.902
397.65
397.404
397.162
396.925
396.691
396.462
396.236
396.014
395.795
395.577
395.359
395.138
394.916
394.696
394.478
394.262
394.049
393.839
393.633
393.431
393.234
393.045
392.865
393.21
393.453
393.639
393.788
393.92
400
400
400
400
399.999
399.636
399.311
399.013
398.736
398.473
398.22
397.977
397.741
397.512
397.289
397.071
396.858
396.65
396.446
396.248
396.053
395.859
395.665
395.469
395.273
395.078
394.885
394.696
394.509
394.326
394.147
393.973
393.804
393.641
393.489
393.807
394.034
394.21
394.35
394.471
400
400
400
400
399.999
399.635
399.31
399.014
398.737
398.476
398.226
397.986
397.754
397.529
397.311
397.099
396.892
396.69
396.494
396.303
396.116
395.93
395.743
395.555
395.367
395.18
394.996
394.815
394.637
394.463
394.294
394.129
393.97
393.818
393.675
393.988
394.213
394.387
394.528
394.648
400
400
400
400
399.999
399.634
399.31
399.013
398.737
398.476
398.227
397.988
397.757
397.533
397.316
397.106
396.901
396.701
396.507
396.319
396.135
395.952
395.767
395.58
395.395
395.211
395.03
394.851
394.676
394.505
394.338
394.177
394.021
393.873
393.734
394.044
394.269
394.443
394.585
394.705
400
400
400
400
399.999
399.634
399.308
399.011
398.735
398.474
398.225
397.985
397.754
397.531
397.315
397.105
396.9
396.702
396.509
396.322
396.139
395.956
395.771
395.585
395.4
395.217
395.036
394.859
394.684
394.514
394.348
394.187
394.033
393.885
393.748
394.058
394.282
394.456
394.598
394.718
400
400
400
400
399.999
399.633
399.308
399.011
398.735
398.474
398.225
397.986
397.756
397.533
397.318
397.108
396.904
396.707
396.515
396.327
396.143
395.96
395.776
395.59
395.405
395.223
395.043
394.865
394.691
394.521
394.355
394.195
394.04
393.893
393.756
394.065
394.29
394.463
394.605
394.725
400
400
400
400
399.999
399.633
399.308
399.011
398.735
398.474
398.225
397.987
397.757
397.535
397.32
397.111
396.908
396.711
396.518
396.33
396.144
395.96
395.776
395.591
395.407
395.225
395.045
394.868
394.694
394.523
394.357
394.197
394.042
393.895
393.757
394.067
394.291
394.465
394.606
394.726
400
400
400
400
399.999
399.633
399.308
399.012
398.736
398.476
398.228
397.99
397.761
397.54
397.326
397.118
396.916
396.719
396.525
396.334
396.146
395.961
395.778
395.594
395.41
395.229
395.049
394.873
394.699
394.528
394.362
394.202
394.047
393.899
393.761
394.07
394.294
394.468
394.609
394.729
400
400
400
400
399.999
399.633
399.309
399.013
398.738
398.478
398.23
397.993
397.765
397.545
397.332
397.125
396.924
396.726
396.529
396.335
396.145
395.958
395.775
395.592
395.411
395.23
395.051
394.875
394.701
394.531
394.365
394.204
394.049
393.9
393.761
394.071
394.295
394.468
394.61
394.73
400
400
400
400
399.999
399.635
399.311
399.015
398.741
398.481
398.234
397.997
397.77
397.552
397.341
397.135
396.934
396.734
396.533
396.337
396.145
395.956
395.772
395.592
395.412
395.232
395.054
394.878
394.705
394.535
394.368
394.207
394.052
393.903
393.762
394.072
394.296
394.469
394.611
394.731
400
400
400
400
399.999
399.635
399.312
399.017
398.743
398.484
398.237
398.001
397.774
397.557
397.347
397.143
396.941
396.738
396.535
396.338
396.145
395.954
395.77
395.59
395.412
395.234
395.057
394.881
394.708
394.538
394.372
394.21
394.054
393.904
393.762
394.072
394.296
394.47
394.611
394.731
400
400
400
400
399.999
399.636
399.314
399.02
398.746
398.487
398.24
398.004
397.778
397.561
397.352
397.149
396.946
396.741
396.538
396.341
396.148
395.957
395.771
395.593
395.416
395.239
395.063
394.888
394.715
394.544
394.378
394.216
394.059
393.908
393.763
394.073
394.298
394.471
394.613
394.732
400
400
400
400
399.999
399.638
399.316
399.022
398.748
398.489
398.242
398.006
397.78
397.563
397.354
397.15
396.946
396.741
396.539
396.342
396.149
395.959
395.773
395.594
395.419
395.244
395.069
394.894
394.721
394.55
394.383
394.221
394.063
393.91
393.764
394.074
394.299
394.473
394.614
394.734
400
400
400
400
399.999
399.638
399.318
399.024
398.75
398.491
398.244
398.007
397.78
397.562
397.353
397.149
396.945
396.74
396.539
396.342
396.149
395.959
395.773
395.595
395.422
395.248
395.074
394.899
394.726
394.555
394.388
394.225
394.066
393.913
393.765
394.076
394.301
394.474
394.616
394.735
400
400
400
400
399.999
399.641
399.321
399.028
398.754
398.494
398.247
398.009
397.781
397.562
397.351
397.146
396.942
396.738
396.537
396.34
396.147
395.957
395.772
395.594
395.422
395.25
395.076
394.903
394.73
394.559
394.391
394.227
394.068
393.912
393.761
394.073
394.298
394.472
394.614
394.734
400
400
400
400
399.999
399.642
399.323
399.03
398.756
398.496
398.247
398.009
397.78
397.56
397.347
397.141
396.938
396.733
396.532
396.336
396.143
395.953
395.768
395.591
395.42
395.248
395.076
394.902
394.73
394.559
394.391
394.226
394.066
393.909
393.758
394.07
394.295
394.47
394.611
394.731
400
400
400
400
399.999
399.643
399.325
399.032
398.758
398.497
398.249
398.01
397.78
397.558
397.344
397.137
396.934
396.73
396.529
396.333
396.14
395.949
395.765
395.589
395.417
395.246
395.074
394.901
394.728
394.557
394.388
394.224
394.063
393.905
393.752
394.065
394.291
394.466
394.608
394.728
400
400
400
400
399.999
399.645
399.327
399.035
398.76
398.499
398.25
398.01
397.779
397.556
397.341
397.133
396.93
396.727
396.526
396.33
396.138
395.947
395.764
395.589
395.416
395.243
395.07
394.897
394.724
394.553
394.384
394.219
394.058
393.899
393.745
394.059
394.285
394.46
394.603
394.723
400
400
400
400
399.999
399.646
399.329
399.036
398.761
398.5
398.251
398.01
397.779
397.555
397.339
397.129
396.926
396.726
396.527
396.332
396.14
395.952
395.77
395.593
395.418
395.243
395.069
394.895
394.722
394.551
394.382
394.216
394.054
393.895
393.741
394.055
394.282
394.458
394.6
394.721
400
400
400
400
399.999
399.647
399.331
399.038
398.763
398.502
398.251
398.01
397.778
397.554
397.336
397.126
396.922
396.724
396.528
396.335
396.145
395.959
395.777
395.598
395.42
395.243
395.067
394.893
394.719
394.547
394.378
394.212
394.049
393.89
393.734
394.05
394.277
394.453
394.596
394.717
400
400
400
400
399.999
399.648
399.332
399.039
398.764
398.503
398.252
398.011
397.778
397.553
397.335
397.124
396.92
396.722
396.529
396.339
396.151
395.966
395.784
395.603
395.422
395.244
395.067
394.891
394.717
394.545
394.375
394.209
394.046
393.886
393.731
394.047
394.275
394.451
394.594
394.716
400
400
400
400
399.999
399.649
399.333
399.04
398.765
398.503
398.253
398.011
397.778
397.552
397.334
397.122
396.917
396.719
396.528
396.34
396.154
395.969
395.785
395.602
395.421
395.241
395.063
394.886
394.712
394.539
394.37
394.203
394.04
393.88
393.725
394.041
394.27
394.446
394.59
394.711
400
400
400
400
399.999
399.649
399.334
399.041
398.766
398.505
398.254
398.012
397.779
397.553
397.334
397.122
396.917
396.72
396.53
396.343
396.157
395.972
395.787
395.603
395.42
395.24
395.061
394.884
394.709
394.537
394.367
394.2
394.037
393.877
393.722
394.039
394.268
394.444
394.588
394.71
400
400
400
400
399.999
399.65
399.334
399.042
398.767
398.505
398.254
398.012
397.778
397.552
397.333
397.12
396.915
396.718
396.528
396.342
396.155
395.969
395.783
395.598
395.415
395.234
395.055
394.877
394.702
394.53
394.36
394.193
394.03
393.869
393.714
394.031
394.26
394.437
394.581
394.703
400
400
400
400
399.999
399.65
399.335
399.043
398.769
398.507
398.256
398.015
397.781
397.554
397.335
397.122
396.916
396.719
396.528
396.341
396.154
395.966
395.779
395.594
395.41
395.228
395.048
394.87
394.694
394.521
394.35
394.183
394.019
393.858
393.702
394.019
394.248
394.425
394.569
394.69
400
400
400
400
399.999
399.65
399.334
399.042
398.767
398.506
398.254
398.012
397.777
397.549
397.328
397.114
396.907
396.708
396.515
396.325
396.135
395.945
395.755
395.567
395.381
395.197
395.014
394.833
394.655
394.479
394.306
394.136
393.969
393.805
393.646
393.965
394.194
394.371
394.514
394.636
400
400
400
400
399.999
399.651
399.334
399.04
398.764
398.5
398.246
398
397.762
397.53
397.304
397.085
396.872
396.667
396.467
396.269
396.071
395.873
395.676
395.48
395.286
395.094
394.903
394.714
394.527
394.342
394.16
393.98
393.804
393.63
393.462
393.786
394.018
394.195
394.338
394.46
400
400
400
400
399.999
399.642
399.317
399.014
398.726
398.45
398.182
397.922
397.667
397.418
397.174
396.935
396.703
396.476
396.254
396.033
395.811
395.589
395.368
395.148
394.929
394.711
394.495
394.28
394.067
393.856
393.647
393.441
393.237
393.037
392.842
393.193
393.439
393.628
393.779
393.911
400
400
400
400
399.999
399.594
399.222
398.874
398.541
398.219
397.905
397.596
397.292
396.992
396.697
396.406
396.121
395.842
395.566
395.291
395.014
394.738
394.461
394.186
393.911
393.637
393.365
393.094
392.825
392.558
392.294
392.031
391.773
391.518
391.273
391.806
392.165
392.437
392.659
392.846
400
400
400
400
399.999
399.777
399.525
399.256
398.978
398.695
398.41
398.125
397.84
397.556
397.273
396.992
396.712
396.434
396.158
395.884
395.613
395.342
395.071
394.798
394.524
394.249
393.976
393.704
393.434
393.167
392.904
392.644
392.389
392.141
391.905
392.153
392.389
392.6
392.786
392.949
400
400
400
400
400
399.808
399.595
399.37
399.138
398.903
398.668
398.433
398.2
397.968
397.739
397.512
397.287
397.064
396.845
396.627
396.413
396.199
395.986
395.772
395.557
395.342
395.129
394.916
394.706
394.498
394.293
394.091
393.894
393.701
393.515
393.629
393.75
393.868
393.975
394.076
400
400
400
400
400
399.813
399.606
399.389
399.167
398.944
398.722
398.501
398.284
398.069
397.858
397.65
397.445
397.244
397.046
396.851
396.66
396.471
396.281
396.092
395.902
395.713
395.526
395.34
395.156
394.975
394.797
394.622
394.452
394.287
394.128
394.23
394.339
394.445
394.542
394.634
400
400
400
400
400
399.812
399.605
399.389
399.168
398.946
398.727
398.509
398.295
398.084
397.878
397.675
397.476
397.28
397.089
396.902
396.718
396.537
396.355
396.173
395.991
395.811
395.632
395.455
395.28
395.108
394.939
394.774
394.613
394.458
394.309
394.409
394.517
394.622
394.719
394.81
400
400
400
400
400
399.812
399.605
399.388
399.168
398.947
398.727
398.511
398.297
398.088
397.882
397.681
397.484
397.29
397.101
396.916
396.735
396.556
396.377
396.197
396.018
395.84
395.664
395.489
395.317
395.148
394.982
394.82
394.663
394.511
394.365
394.466
394.573
394.678
394.776
394.867
400
400
400
400
400
399.811
399.604
399.387
399.166
398.944
398.724
398.507
398.294
398.085
397.88
397.679
397.482
397.289
397.101
396.917
396.737
396.558
396.379
396.2
396.022
395.844
395.669
395.495
395.324
395.155
394.99
394.829
394.673
394.522
394.377
394.478
394.585
394.69
394.789
394.88
400
400
400
400
400
399.811
399.604
399.386
399.165
398.944
398.724
398.508
398.295
398.086
397.881
397.681
397.485
397.293
397.105
396.921
396.741
396.562
396.383
396.205
396.026
395.849
395.674
395.501
395.33
395.162
394.997
394.836
394.68
394.529
394.385
394.485
394.593
394.697
394.796
394.887
400
400
400
400
400
399.811
399.603
399.386
399.165
398.943
398.723
398.507
398.294
398.086
397.882
397.682
397.486
397.294
397.107
396.923
396.741
396.562
396.383
396.204
396.026
395.85
395.675
395.502
395.331
395.163
394.998
394.837
394.681
394.53
394.385
394.486
394.593
394.698
394.796
394.887
400
400
400
400
400
399.811
399.603
399.386
399.165
398.944
398.725
398.509
398.297
398.089
397.886
397.687
397.492
397.301
397.113
396.927
396.744
396.564
396.385
396.207
396.029
395.853
395.678
395.506
395.335
395.167
395.002
394.841
394.685
394.534
394.389
394.489
394.597
394.701
394.799
394.89
400
400
400
400
400
399.811
399.604
399.387
399.166
398.945
398.726
398.511
398.299
398.092
397.89
397.692
397.497
397.306
397.116
396.929
396.744
396.563
396.383
396.206
396.029
395.853
395.679
395.506
395.336
395.168
395.003
394.842
394.686
394.534
394.389
394.489
394.597
394.701
394.799
394.89
400
400
400
400
400
399.812
399.605
399.388
399.168
398.947
398.729
398.514
398.303
398.097
397.896
397.699
397.505
397.313
397.121
396.932
396.746
396.563
396.383
396.205
396.03
395.855
395.681
395.509
395.339
395.171
395.006
394.845
394.689
394.537
394.39
394.491
394.598
394.703
394.801
394.891
400
400
400
400
400
399.812
399.605
399.389
399.169
398.949
398.731
398.516
398.306
398.101
397.9
397.704
397.51
397.317
397.124
396.934
396.747
396.562
396.381
396.204
396.029
395.855
395.682
395.511
395.341
395.173
395.009
394.847
394.69
394.538
394.391
394.491
394.598
394.703
394.801
394.892
400
400
400
400
400
399.813
399.607
399.391
399.171
398.951
398.733
398.519
398.309
398.104
397.904
397.709
397.515
397.32
397.127
396.937
396.75
396.565
396.383
396.206
396.032
395.859
395.687
395.516
395.346
395.179
395.014
394.853
394.695
394.542
394.393
394.493
394.6
394.705
394.803
394.893
400
400
400
400
400
399.813
399.608
399.392
399.173
398.953
398.735
398.52
398.31
398.105
397.905
397.71
397.515
397.321
397.128
396.938
396.751
396.566
396.384
396.208
396.034
395.862
395.691
395.52
395.351
395.184
395.019
394.857
394.699
394.545
394.395
394.495
394.602
394.706
394.804
394.895
400
400
400
400
400
399.814
399.609
399.394
399.174
398.954
398.736
398.521
398.311
398.105
397.905
397.709
397.514
397.32
397.127
396.937
396.75
396.566
396.384
396.208
396.036
395.865
395.694
395.524
395.355
395.188
395.023
394.861
394.702
394.548
394.397
394.497
394.604
394.708
394.806
394.896
400
400
400
400
400
399.815
399.611
399.396
399.177
398.957
398.739
398.523
398.312
398.106
397.905
397.708
397.513
397.318
397.126
396.936
396.749
396.564
396.383
396.207
396.035
395.865
395.696
395.526
395.358
395.19
395.025
394.863
394.704
394.548
394.395
394.495
394.602
394.706
394.804
394.895
400
400
400
400
400
399.815
399.612
399.397
399.178
398.958
398.74
398.524
398.312
398.105
397.903
397.705
397.51
397.315
397.122
396.933
396.746
396.561
396.38
396.204
396.033
395.863
395.694
395.525
395.357
395.19
395.025
394.862
394.702
394.546
394.393
394.492
394.599
394.704
394.802
394.893
400
400
400
400
400
399.816
399.613
399.399
399.18
398.96
398.741
398.525
398.312
398.104
397.901
397.702
397.507
397.312
397.12
396.93
396.743
396.558
396.377
396.202
396.031
395.861
395.692
395.523
395.355
395.188
395.023
394.86
394.7
394.543
394.389
394.489
394.596
394.701
394.799
394.89
400
400
400
400
400
399.817
399.614
399.401
399.182
398.961
398.742
398.526
398.313
398.104
397.9
397.7
397.504
397.31
397.117
396.928
396.741
396.556
396.376
396.201
396.029
395.859
395.69
395.521
395.352
395.185
395.02
394.857
394.696
394.538
394.383
394.483
394.591
394.696
394.794
394.885
400
400
400
400
400
399.818
399.615
399.402
399.183
398.963
398.743
398.527
398.313
398.104
397.899
397.698
397.502
397.309
397.118
396.929
396.743
396.559
396.38
396.205
396.032
395.861
395.69
395.521
395.352
395.184
395.018
394.855
394.694
394.536
394.381
394.481
394.588
394.693
394.792
394.883
400
400
400
400
400
399.818
399.616
399.403
399.184
398.964
398.744
398.527
398.313
398.103
397.898
397.696
397.5
397.307
397.117
396.93
396.745
396.564
396.385
396.21
396.035
395.862
395.691
395.52
395.35
395.182
395.016
394.852
394.691
394.532
394.376
394.476
394.584
394.689
394.788
394.88
400
400
400
400
400
399.819
399.617
399.404
399.185
398.965
398.746
398.528
398.314
398.104
397.898
397.696
397.499
397.307
397.118
396.933
396.75
396.569
396.391
396.214
396.039
395.865
395.692
395.521
395.35
395.182
395.015
394.851
394.689
394.53
394.374
394.474
394.582
394.688
394.787
394.878
400
400
400
400
400
399.819
399.618
399.405
399.186
398.966
398.746
398.529
398.314
398.104
397.897
397.695
397.497
397.305
397.117
396.933
396.751
396.571
396.393
396.215
396.038
395.863
395.69
395.518
395.347
395.178
395.011
394.846
394.684
394.525
394.369
394.47
394.578
394.683
394.782
394.874
400
400
400
400
400
399.819
399.619
399.406
399.188
398.968
398.748
398.531
398.316
398.105
397.899
397.696
397.498
397.306
397.119
396.936
396.755
396.575
396.395
396.217
396.04
395.864
395.69
395.517
395.346
395.177
395.01
394.845
394.683
394.524
394.368
394.468
394.576
394.682
394.781
394.873
400
400
400
400
400
399.82
399.619
399.406
399.188
398.968
398.748
398.531
398.316
398.105
397.898
397.695
397.497
397.305
397.118
396.935
396.753
396.573
396.393
396.214
396.036
395.86
395.685
395.512
395.34
395.171
395.004
394.839
394.676
394.517
394.36
394.461
394.569
394.675
394.774
394.866
400
400
400
400
400
399.82
399.62
399.408
399.19
398.97
398.751
398.534
398.319
398.108
397.901
397.698
397.499
397.307
397.12
396.936
396.753
396.571
396.391
396.211
396.033
395.856
395.68
395.506
395.334
395.163
394.995
394.83
394.667
394.506
394.349
394.45
394.558
394.664
394.763
394.854
400
400
400
400
400
399.82
399.619
399.407
399.189
398.969
398.749
398.531
398.316
398.103
397.895
397.691
397.491
397.297
397.108
396.921
396.736
396.552
396.369
396.186
396.006
395.826
395.648
395.471
395.296
395.123
394.952
394.784
394.618
394.454
394.294
394.395
394.503
394.609
394.708
394.799
400
400
400
400
400
399.82
399.619
399.406
399.187
398.965
398.743
398.521
398.303
398.086
397.873
397.664
397.459
397.259
397.063
396.869
396.677
396.485
396.294
396.104
395.915
395.727
395.541
395.356
395.172
394.991
394.811
394.633
394.458
394.285
394.115
394.217
394.327
394.434
394.532
394.625
400
400
400
400
400
399.815
399.608
399.385
399.156
398.922
398.686
398.451
398.216
397.983
397.752
397.523
397.298
397.078
396.86
396.644
396.428
396.212
395.997
395.783
395.569
395.356
395.144
394.933
394.723
394.515
394.308
394.103
393.901
393.701
393.504
393.619
393.741
393.859
393.967
394.068
400
400
400
400
399.999
399.784
399.537
399.272
398.995
398.713
398.428
398.141
397.854
397.568
397.283
397
396.721
396.445
396.172
395.899
395.627
395.353
395.08
394.808
394.535
394.264
393.993
393.723
393.454
393.188
392.922
392.659
392.399
392.142
391.891
392.14
392.377
392.59
392.777
392.942
400
400
400
400
400
399.86
399.7
399.521
399.325
399.117
398.898
398.669
398.434
398.193
397.948
397.699
397.448
397.195
396.941
396.686
396.431
396.176
395.919
395.66
395.399
395.137
394.874
394.612
394.351
394.09
393.832
393.576
393.324
393.076
392.836
392.909
393.003
393.106
393.212
393.311
400
400
400
400
400
399.88
399.745
399.598
399.439
399.272
399.097
398.917
398.732
398.543
398.352
398.159
397.965
397.77
397.574
397.379
397.184
396.989
396.793
396.595
396.397
396.199
396
395.801
395.604
395.407
395.212
395.019
394.828
394.64
394.457
394.457
394.472
394.497
394.529
394.564
400
400
400
400
400
399.882
399.752
399.61
399.46
399.302
399.138
398.971
398.8
398.626
398.452
398.277
398.102
397.927
397.752
397.579
397.406
397.234
397.062
396.889
396.716
396.543
396.37
396.198
396.027
395.857
395.689
395.523
395.36
395.2
395.044
395.046
395.058
395.08
395.106
395.137
400
400
400
400
400
399.882
399.752
399.61
399.461
399.304
399.142
398.977
398.809
398.639
398.469
398.298
398.128
397.959
397.79
397.623
397.458
397.293
397.128
396.963
396.798
396.632
396.468
396.304
396.142
395.981
395.822
395.665
395.511
395.361
395.215
395.219
395.234
395.256
395.284
395.316
400
400
400
400
400
399.882
399.752
399.611
399.461
399.305
399.143
398.978
398.811
398.642
398.473
398.304
398.135
397.967
397.801
397.636
397.473
397.311
397.148
396.985
396.822
396.659
396.498
396.337
396.177
396.019
395.863
395.709
395.559
395.412
395.269
395.274
395.29
395.313
395.341
395.374
400
400
400
400
400
399.882
399.751
399.609
399.459
399.302
399.141
398.975
398.808
398.639
398.47
398.301
398.133
397.965
397.8
397.636
397.473
397.311
397.149
396.987
396.824
396.662
396.501
396.341
396.182
396.025
395.87
395.717
395.567
395.421
395.279
395.285
395.301
395.325
395.353
395.387
400
400
400
400
400
399.881
399.751
399.609
399.459
399.302
399.141
398.976
398.808
398.64
398.471
398.302
398.134
397.968
397.802
397.638
397.476
397.314
397.152
396.99
396.828
396.666
396.505
396.346
396.187
396.03
395.875
395.723
395.573
395.427
395.286
395.292
395.308
395.332
395.36
395.394
400
400
400
400
400
399.881
399.75
399.609
399.458
399.302
399.14
398.975
398.807
398.639
398.471
398.302
398.134
397.968
397.802
397.638
397.475
397.313
397.151
396.989
396.827
396.666
396.505
396.345
396.187
396.03
395.875
395.722
395.573
395.427
395.285
395.292
395.308
395.331
395.36
395.394
400
400
400
400
400
399.882
399.751
399.609
399.459
399.302
399.141
398.976
398.809
398.641
398.473
398.305
398.138
397.972
397.807
397.642
397.478
397.316
397.153
396.991
396.829
396.668
396.508
396.348
396.19
396.033
395.878
395.726
395.576
395.43
395.288
395.295
395.311
395.334
395.363
395.396
400
400
400
400
400
399.882
399.751
399.609
399.459
399.303
399.141
398.977
398.81
398.643
398.475
398.308
398.141
397.975
397.809
397.643
397.478
397.315
397.152
396.99
396.829
396.668
396.507
396.348
396.19
396.033
395.878
395.726
395.576
395.43
395.288
395.294
395.31
395.334
395.362
395.396
400
400
400
400
400
399.882
399.752
399.61
399.461
399.304
399.143
398.979
398.813
398.646
398.48
398.313
398.147
397.98
397.813
397.647
397.481
397.316
397.153
396.991
396.83
396.669
396.509
396.35
396.192
396.036
395.881
395.728
395.579
395.432
395.29
395.296
395.312
395.335
395.364
395.397
400
400
400
400
400
399.882
399.752
399.611
399.461
399.305
399.144
398.98
398.815
398.648
398.482
398.317
398.151
397.983
397.815
397.648
397.482
397.316
397.152
396.991
396.83
396.669
396.51
396.351
396.193
396.037
395.882
395.73
395.58
395.433
395.29
395.296
395.312
395.335
395.364
395.397
400
400
400
400
400
399.883
399.753
399.612
399.463
399.307
399.146
398.982
398.817
398.651
398.485
398.32
398.154
397.986
397.818
397.651
397.484
397.318
397.154
396.993
396.832
396.673
396.513
396.355
396.197
396.041
395.886
395.734
395.584
395.436
395.292
395.298
395.314
395.337
395.366
395.399
400
400
400
400
400
399.883
399.753
399.613
399.464
399.308
399.147
398.983
398.818
398.652
398.486
398.321
398.154
397.986
397.818
397.651
397.485
397.319
397.155
396.993
396.834
396.675
396.516
396.358
396.2
396.044
395.89
395.737
395.587
395.439
395.294
395.3
395.315
395.339
395.367
395.4
400
400
400
400
400
399.883
399.754
399.614
399.465
399.309
399.148
398.984
398.819
398.652
398.486
398.321
398.154
397.986
397.818
397.651
397.485
397.319
397.155
396.994
396.834
396.676
396.518
396.36
396.203
396.047
395.893
395.74
395.589
395.441
395.296
395.302
395.317
395.34
395.369
395.402
400
400
400
400
400
399.884
399.755
399.615
399.467
399.311
399.15
398.986
398.82
398.653
398.486
398.32
398.153
397.985
397.817
397.65
397.484
397.318
397.154
396.993
396.834
396.676
396.519
396.361
396.205
396.049
395.894
395.742
395.591
395.442
395.295
395.301
395.316
395.339
395.368
395.401
400
400
400
400
400
399.884
399.756
399.616
399.467
399.312
399.151
398.986
398.82
398.653
398.485
398.318
398.151
397.983
397.815
397.648
397.481
397.316
397.151
396.99
396.832
396.674
396.517
396.36
396.203
396.048
395.893
395.74
395.589
395.44
395.293
395.299
395.314
395.337
395.366
395.399
400
400
400
400
400
399.885
399.757
399.617
399.469
399.313
399.152
398.987
398.82
398.653
398.485
398.317
398.15
397.982
397.813
397.646
397.479
397.314
397.15
396.989
396.83
396.673
396.516
396.359
396.202
396.047
395.892
395.739
395.588
395.438
395.291
395.296
395.312
395.335
395.363
395.396
400
400
400
400
400
399.885
399.758
399.618
399.47
399.314
399.153
398.988
398.821
398.653
398.484
398.316
398.148
397.98
397.812
397.645
397.478
397.312
397.149
396.988
396.829
396.671
396.514
396.357
396.2
396.044
395.89
395.736
395.585
395.435
395.287
395.292
395.308
395.331
395.359
395.393
400
400
400
400
400
399.886
399.758
399.619
399.471
399.315
399.154
398.989
398.822
398.653
398.484
398.315
398.148
397.98
397.813
397.646
397.48
397.315
397.152
396.991
396.832
396.673
396.515
396.358
396.201
396.045
395.89
395.736
395.584
395.434
395.286
395.291
395.307
395.33
395.358
395.392
400
400
400
400
400
399.886
399.759
399.62
399.471
399.316
399.154
398.989
398.822
398.653
398.484
398.314
398.146
397.979
397.812
397.646
397.481
397.317
397.155
396.994
396.834
396.675
396.516
396.358
396.201
396.044
395.889
395.735
395.582
395.432
395.283
395.288
395.304
395.327
395.356
395.389
400
400
400
400
400
399.886
399.759
399.62
399.472
399.317
399.156
398.991
398.823
398.654
398.484
398.315
398.146
397.979
397.814
397.649
397.485
397.322
397.16
396.998
396.838
396.678
396.519
396.36
396.202
396.045
395.889
395.735
395.583
395.432
395.283
395.288
395.303
395.327
395.355
395.389
400
400
400
400
400
399.887
399.76
399.621
399.473
399.317
399.156
398.991
398.823
398.654
398.484
398.314
398.145
397.978
397.813
397.649
397.485
397.323
397.161
396.999
396.838
396.677
396.517
396.358
396.2
396.043
395.887
395.732
395.579
395.428
395.279
395.285
395.3
395.323
395.352
395.385
400
400
400
400
400
399.887
399.76
399.622
399.474
399.319
399.158
398.993
398.825
398.656
398.486
398.316
398.148
397.98
397.815
397.652
397.489
397.326
397.164
397.002
396.84
396.68
396.519
396.36
396.201
396.044
395.888
395.733
395.58
395.429
395.279
395.285
395.3
395.323
395.352
395.385
400
400
400
400
400
399.887
399.76
399.622
399.474
399.319
399.158
398.993
398.825
398.656
398.486
398.316
398.147
397.98
397.815
397.651
397.488
397.325
397.162
397
396.838
396.676
396.516
396.356
396.197
396.039
395.883
395.728
395.574
395.423
395.273
395.278
395.294
395.317
395.345
395.379
400
400
400
400
400
399.887
399.761
399.623
399.476
399.321
399.16
398.996
398.828
398.659
398.489
398.319
398.15
397.982
397.817
397.653
397.489
397.325
397.162
396.998
396.836
396.674
396.512
396.352
396.192
396.033
395.876
395.72
395.566
395.414
395.263
395.268
395.283
395.306
395.334
395.367
400
400
400
400
400
399.887
399.761
399.622
399.475
399.32
399.159
398.993
398.825
398.655
398.484
398.312
398.142
397.973
397.806
397.64
397.474
397.308
397.142
396.976
396.811
396.646
396.482
396.319
396.156
395.995
395.835
395.676
395.519
395.364
395.21
395.214
395.228
395.25
395.278
395.31
400
400
400
400
400
399.887
399.76
399.622
399.473
399.316
399.153
398.986
398.814
398.641
398.465
398.29
398.114
397.94
397.767
397.594
397.421
397.248
397.074
396.901
396.728
396.556
396.383
396.212
396.041
395.871
395.702
395.534
395.368
395.203
395.04
395.041
395.053
395.075
395.101
395.132
400
400
400
400
400
399.884
399.753
399.608
399.451
399.285
399.111
398.93
398.745
398.556
398.364
398.17
397.976
397.781
397.587
397.392
397.197
397.001
396.804
396.606
396.409
396.211
396.013
395.815
395.618
395.421
395.226
395.031
394.837
394.645
394.455
394.454
394.468
394.493
394.525
394.56
400
400
400
400
400
399.865
399.708
399.531
399.338
399.13
398.911
398.682
398.446
398.204
397.957
397.708
397.457
397.205
396.952
396.699
396.444
396.187
395.928
395.669
395.409
395.149
394.888
394.628
394.367
394.108
393.849
393.591
393.335
393.08
392.83
392.903
392.996
393.1
393.206
393.305
400
400
400
400
400
399.893
399.775
399.645
399.504
399.352
399.19
399.018
398.838
398.65
398.455
398.253
398.046
397.834
397.617
397.398
397.175
396.949
396.72
396.487
396.251
396.013
395.773
395.531
395.288
395.045
394.802
394.56
394.32
394.082
393.849
393.845
393.855
393.876
393.906
393.933
400
400
400
400
400
399.907
399.807
399.7
399.585
399.464
399.337
399.204
399.065
398.922
398.775
398.624
398.469
398.312
398.152
397.991
397.827
397.662
397.495
397.325
397.153
396.98
396.805
396.63
396.454
396.278
396.102
395.927
395.753
395.58
395.41
395.373
395.342
395.318
395.3
395.284
400
400
400
400
400
399.909
399.812
399.708
399.599
399.485
399.366
399.243
399.116
398.985
398.852
398.716
398.578
398.438
398.297
398.156
398.013
397.869
397.724
397.577
397.429
397.28
397.131
396.981
396.831
396.681
396.532
396.384
396.237
396.092
395.949
395.92
395.896
395.877
395.861
395.85
400
400
400
400
400
399.909
399.812
399.709
399.6
399.487
399.369
399.248
399.123
398.995
398.865
398.733
398.599
398.465
398.329
398.193
398.057
397.919
397.781
397.641
397.5
397.359
397.217
397.075
396.933
396.792
396.652
396.513
396.375
396.239
396.106
396.081
396.061
396.045
396.033
396.025
400
400
400
400
400
399.909
399.811
399.709
399.6
399.487
399.37
399.249
399.125
398.998
398.868
398.737
398.605
398.472
398.338
398.204
398.069
397.934
397.798
397.66
397.521
397.382
397.243
397.104
396.965
396.827
396.689
396.553
396.418
396.286
396.156
396.133
396.115
396.1
396.089
396.083
400
400
400
400
400
399.908
399.811
399.708
399.599
399.486
399.368
399.247
399.122
398.995
398.866
398.735
398.603
398.47
398.337
398.203
398.069
397.934
397.798
397.661
397.523
397.385
397.246
397.107
396.969
396.832
396.695
396.559
396.426
396.294
396.165
396.143
396.125
396.111
396.101
396.096
400
400
400
400
400
399.908
399.811
399.708
399.599
399.486
399.368
399.247
399.123
398.996
398.867
398.736
398.604
398.472
398.338
398.205
398.071
397.936
397.801
397.663
397.526
397.388
397.249
397.111
396.973
396.836
396.699
396.564
396.431
396.299
396.17
396.149
396.131
396.117
396.107
396.102
400
400
400
400
400
399.908
399.811
399.708
399.599
399.485
399.368
399.246
399.122
398.995
398.866
398.736
398.604
398.471
398.338
398.204
398.07
397.935
397.799
397.662
397.525
397.386
397.248
397.11
396.972
396.835
396.698
396.563
396.43
396.298
396.169
396.148
396.13
396.116
396.106
396.102
400