/*--------------------------------*- C++ -*----------------------------------*\
| =========                 |                                                 |
| \\      /  F ield         | OpenFOAM: The Open Source CFD Toolbox           |
|  \\    /   O peration     | Version:  5.0                                   |
|   \\  /    A nd           | Web:      www.OpenFOAM.org                      |
|    \\/     M anipulation  |                                                 |
\*---------------------------------------------------------------------------*/
FoamFile
{
    version     2.0;
    format      ascii;
    class       volScalarField;
    location    "1400/porous";
    object      T;
}
// * * * * * * * * * * * * * * * * * * * * * * * * * * * * * * * * * * * * * //

dimensions      [0 0 0 1 0 0 0];

internalField   nonuniform List<scalar> 
36000
(
400
400
400
400
399.999
399.586
399.21
398.859
398.524
398.202
397.888
397.581
397.278
396.981
396.687
396.396
396.109
395.825
395.543
395.263
394.985
394.709
394.433
394.157
393.88
393.604
393.329
393.057
392.787
392.522
392.261
392.006
391.76
391.527
391.312
391.833
392.186
392.455
392.674
392.859
400
400
400
400
399.999
399.635
399.305
398.998
398.708
398.431
398.164
397.904
397.651
397.404
397.161
396.922
396.688
396.457
396.228
396.003
395.78
395.559
395.339
395.118
394.898
394.679
394.461
394.246
394.033
393.823
393.618
393.418
393.225
393.041
392.868
393.211
393.452
393.638
393.787
393.918
400
400
400
400
399.999
399.642
399.32
399.022
398.743
398.478
398.225
397.98
397.743
397.512
397.288
397.068
396.854
396.644
396.437
396.235
396.035
395.838
395.642
395.447
395.252
395.058
394.866
394.677
394.491
394.308
394.13
393.958
393.792
393.634
393.486
393.802
394.029
394.204
394.344
394.465
400
400
400
400
399.999
399.642
399.32
399.023
398.746
398.482
398.231
397.989
397.756
397.529
397.309
397.095
396.886
396.682
396.482
396.287
396.094
395.905
395.717
395.529
395.343
395.157
394.974
394.794
394.616
394.443
394.275
394.112
393.956
393.807
393.668
393.979
394.204
394.378
394.519
394.639
400
400
400
400
399.999
399.642
399.32
399.024
398.746
398.484
398.233
397.991
397.758
397.533
397.314
397.102
396.894
396.692
396.494
396.3
396.11
395.923
395.738
395.553
395.368
395.186
395.005
394.827
394.653
394.483
394.317
394.158
394.005
393.86
393.724
394.033
394.257
394.431
394.573
394.692
400
400
400
400
399.999
399.642
399.32
399.023
398.745
398.482
398.231
397.989
397.756
397.531
397.313
397.1
396.893
396.691
396.493
396.301
396.112
395.926
395.741
395.556
395.372
395.19
395.01
394.833
394.66
394.49
394.325
394.167
394.015
393.871
393.736
394.045
394.269
394.443
394.584
394.704
400
400
400
400
399.999
399.641
399.32
399.024
398.746
398.483
398.232
397.991
397.758
397.533
397.315
397.102
396.895
396.694
396.497
396.305
396.117
395.931
395.746
395.561
395.377
395.195
395.016
394.839
394.666
394.497
394.333
394.174
394.023
393.879
393.744
394.053
394.276
394.45
394.592
394.712
400
400
400
400
399.999
399.642
399.321
399.024
398.747
398.484
398.233
397.992
397.759
397.534
397.316
397.104
396.897
396.696
396.5
396.308
396.12
395.934
395.749
395.564
395.38
395.198
395.019
394.843
394.669
394.5
394.336
394.178
394.026
393.882
393.747
394.056
394.279
394.453
394.594
394.714
400
400
400
400
399.999
399.642
399.321
399.026
398.749
398.487
398.236
397.995
397.763
397.539
397.321
397.109
396.903
396.702
396.506
396.315
396.126
395.94
395.755
395.571
395.387
395.205
395.026
394.85
394.677
394.508
394.344
394.185
394.034
393.889
393.754
394.063
394.286
394.459
394.601
394.721
400
400
400
400
399.999
399.642
399.322
399.027
398.751
398.489
398.239
397.998
397.766
397.542
397.325
397.114
396.908
396.708
396.512
396.32
396.132
395.945
395.76
395.576
395.393
395.211
395.032
394.856
394.683
394.514
394.35
394.191
394.039
393.895
393.76
394.068
394.291
394.464
394.606
394.726
400
400
400
400
399.999
399.644
399.324
399.03
398.754
398.492
398.243
398.003
397.771
397.548
397.331
397.12
396.915
396.716
396.52
396.328
396.138
395.952
395.767
395.583
395.4
395.219
395.04
394.864
394.691
394.522
394.358
394.2
394.047
393.903
393.767
394.075
394.299
394.472
394.613
394.733
400
400
400
400
399.999
399.644
399.325
399.031
398.756
398.495
398.246
398.006
397.775
397.552
397.335
397.125
396.921
396.721
396.525
396.332
396.141
395.955
395.771
395.587
395.405
395.224
395.046
394.87
394.697
394.528
394.364
394.205
394.053
393.908
393.772
394.08
394.303
394.476
394.617
394.737
400
400
400
400
399.999
399.645
399.327
399.034
398.759
398.499
398.249
398.01
397.779
397.556
397.34
397.13
396.926
396.726
396.529
396.334
396.143
395.956
395.772
395.59
395.408
395.228
395.05
394.875
394.702
394.533
394.369
394.21
394.057
393.912
393.775
394.084
394.307
394.48
394.621
394.74
400
400
400
400
399.999
399.646
399.328
399.036
398.762
398.501
398.252
398.013
397.781
397.558
397.342
397.133
396.928
396.728
396.53
396.335
396.143
395.956
395.772
395.59
395.41
395.23
395.053
394.877
394.705
394.536
394.372
394.213
394.059
393.913
393.775
394.084
394.307
394.48
394.621
394.741
400
400
400
400
399.999
399.646
399.33
399.038
398.764
398.503
398.254
398.015
397.783
397.56
397.343
397.134
396.929
396.728
396.53
396.335
396.143
395.955
395.771
395.59
395.411
395.232
395.055
394.88
394.707
394.539
394.374
394.215
394.061
393.914
393.775
394.084
394.308
394.481
394.622
394.742
400
400
400
400
399.999
399.648
399.333
399.041
398.767
398.507
398.257
398.017
397.785
397.561
397.344
397.134
396.929
396.729
396.53
396.335
396.143
395.956
395.772
395.591
395.412
395.234
395.057
394.882
394.71
394.541
394.376
394.216
394.061
393.912
393.772
394.081
394.305
394.479
394.62
394.74
400
400
400
400
399.999
399.649
399.334
399.042
398.768
398.508
398.258
398.018
397.786
397.561
397.344
397.133
396.928
396.728
396.53
396.335
396.144
395.956
395.773
395.592
395.413
395.235
395.058
394.883
394.711
394.541
394.376
394.215
394.06
393.911
393.769
394.079
394.304
394.477
394.619
394.739
400
400
400
400
399.999
399.65
399.335
399.044
398.77
398.509
398.259
398.019
397.786
397.561
397.343
397.132
396.927
396.727
396.53
396.336
396.145
395.958
395.775
395.594
395.414
395.236
395.059
394.884
394.711
394.541
394.375
394.214
394.058
393.908
393.766
394.076
394.301
394.475
394.616
394.736
400
400
400
400
399.999
399.65
399.336
399.045
398.771
398.51
398.26
398.018
397.785
397.56
397.341
397.129
396.924
396.724
396.528
396.335
396.145
395.959
395.776
395.594
395.413
395.234
395.057
394.881
394.708
394.538
394.371
394.209
394.052
393.901
393.758
394.07
394.295
394.469
394.611
394.731
400
400
400
400
399.999
399.651
399.336
399.045
398.771
398.51
398.26
398.018
397.785
397.559
397.34
397.128
396.922
396.722
396.527
396.335
396.145
395.959
395.775
395.592
395.411
395.231
395.053
394.878
394.704
394.533
394.366
394.203
394.045
393.894
393.751
394.063
394.288
394.463
394.605
394.726
400
400
400
400
399.999
399.651
399.337
399.046
398.772
398.51
398.259
398.018
397.784
397.557
397.338
397.125
396.919
396.719
396.524
396.332
396.143
395.956
395.771
395.587
395.405
395.225
395.047
394.87
394.696
394.525
394.357
394.194
394.036
393.884
393.74
394.053
394.279
394.454
394.596
394.717
400
400
400
400
399.999
399.651
399.337
399.046
398.772
398.511
398.26
398.018
397.784
397.557
397.337
397.125
396.918
396.718
396.523
396.332
396.142
395.954
395.768
395.584
395.401
395.221
395.042
394.865
394.691
394.519
394.351
394.187
394.028
393.876
393.732
394.045
394.272
394.447
394.59
394.711
400
400
400
400
399.999
399.651
399.338
399.047
398.772
398.511
398.259
398.017
397.783
397.556
397.336
397.123
396.916
396.716
396.521
396.329
396.139
395.951
395.764
395.579
395.396
395.215
395.035
394.858
394.684
394.511
394.343
394.178
394.019
393.867
393.723
394.036
394.263
394.439
394.582
394.703
400
400
400
400
399.999
399.652
399.338
399.048
398.773
398.512
398.26
398.018
397.784
397.557
397.337
397.124
396.917
396.717
396.521
396.329
396.139
395.95
395.763
395.577
395.394
395.213
395.033
394.856
394.681
394.508
394.339
394.174
394.015
393.862
393.717
394.032
394.259
394.435
394.578
394.699
400
400
400
400
399.999
399.652
399.339
399.048
398.774
398.512
398.26
398.018
397.783
397.556
397.336
397.123
396.916
396.715
396.519
396.326
396.135
395.946
395.758
395.573
395.389
395.208
395.028
394.85
394.675
394.502
394.333
394.167
394.007
393.854
393.709
394.023
394.251
394.427
394.57
394.692
400
400
400
400
399.999
399.653
399.34
399.049
398.775
398.514
398.262
398.02
397.785
397.558
397.338
397.124
396.917
396.716
396.52
396.326
396.134
395.944
395.756
395.57
395.386
395.203
395.023
394.845
394.669
394.495
394.325
394.158
393.997
393.843
393.696
394.011
394.239
394.415
394.558
394.68
400
400
400
400
399.999
399.653
399.34
399.049
398.774
398.512
398.26
398.017
397.782
397.554
397.332
397.117
396.909
396.706
396.507
396.311
396.117
395.925
395.735
395.546
395.36
395.175
394.992
394.811
394.633
394.457
394.283
394.114
393.949
393.791
393.641
393.958
394.186
394.362
394.505
394.626
400
400
400
400
399.999
399.654
399.34
399.048
398.771
398.507
398.253
398.006
397.767
397.535
397.308
397.088
396.874
396.665
396.46
396.257
396.056
395.857
395.659
395.463
395.269
395.076
394.885
394.695
394.508
394.323
394.141
393.962
393.787
393.619
393.46
393.782
394.012
394.189
394.331
394.453
400
400
400
400
399.999
399.647
399.325
399.022
398.735
398.458
398.19
397.929
397.674
397.424
397.18
396.94
396.706
396.476
396.248
396.023
395.799
395.576
395.355
395.134
394.915
394.697
394.48
394.265
394.052
393.84
393.631
393.425
393.223
393.028
392.842
393.191
393.436
393.624
393.774
393.907
400
400
400
400
399.999
399.599
399.231
398.884
398.551
398.229
397.913
397.604
397.299
396.999
396.703
396.411
396.124
395.841
395.56
395.281
395.003
394.725
394.449
394.173
393.898
393.624
393.351
393.08
392.81
392.542
392.277
392.015
391.758
391.51
391.277
391.807
392.165
392.436
392.657
392.844
400
400
400
400
399.999
399.78
399.53
399.262
398.983
398.7
398.414
398.128
397.842
397.557
397.273
396.991
396.71
396.431
396.153
395.877
395.602
395.328
395.055
394.782
394.508
394.234
393.961
393.689
393.42
393.153
392.89
392.632
392.381
392.14
391.912
392.159
392.394
392.605
392.791
392.953
400
400
400
400
400
399.811
399.6
399.375
399.143
398.908
398.671
398.436
398.202
397.969
397.739
397.511
397.285
397.061
396.84
396.62
396.402
396.186
395.971
395.756
395.541
395.327
395.113
394.901
394.691
394.484
394.279
394.078
393.883
393.694
393.513
393.627
393.748
393.866
393.972
394.073
400
400
400
400
400
399.816
399.611
399.395
399.173
398.949
398.726
398.505
398.286
398.07
397.858
397.649
397.443
397.24
397.04
396.843
396.648
396.455
396.264
396.074
395.884
395.696
395.508
395.323
395.139
394.958
394.781
394.608
394.439
394.277
394.121
394.223
394.332
394.438
394.536
394.627
400
400
400
400
400
399.816
399.611
399.395
399.174
398.952
398.731
398.513
398.298
398.086
397.878
397.674
397.473
397.276
397.082
396.891
396.704
396.518
396.335
396.152
395.971
395.791
395.612
395.435
395.26
395.089
394.92
394.756
394.598
394.445
394.298
394.399
394.507
394.612
394.709
394.8
400
400
400
400
400
399.816
399.611
399.396
399.175
398.953
398.733
398.515
398.3
398.089
397.882
397.679
397.48
397.284
397.092
396.904
396.718
396.536
396.354
396.174
395.995
395.817
395.641
395.467
395.295
395.127
394.961
394.801
394.645
394.495
394.352
394.453
394.56
394.665
394.763
394.854
400
400
400
400
400
399.815
399.611
399.395
399.173
398.951
398.73
398.512
398.297
398.087
397.88
397.677
397.478
397.282
397.091
396.903
396.718
396.536
396.356
396.176
395.998
395.82
395.645
395.472
395.301
395.133
394.968
394.809
394.654
394.505
394.363
394.464
394.572
394.676
394.775
394.866
400
400
400
400
400
399.815
399.611
399.395
399.174
398.952
398.731
398.513
398.298
398.088
397.881
397.678
397.48
397.285
397.094
396.906
396.722
396.54
396.36
396.18
396.002
395.825
395.65
395.477
395.306
395.139
394.975
394.815
394.661
394.512
394.37
394.471
394.579
394.684
394.782
394.873
400
400
400
400
400
399.815
399.611
399.395
399.174
398.952
398.731
398.513
398.298
398.088
397.881
397.679
397.48
397.285
397.094
396.907
396.723
396.542
396.361
396.182
396.004
395.827
395.652
395.479
395.308
395.141
394.977
394.817
394.663
394.515
394.373
394.473
394.581
394.686
394.784
394.875
400
400
400
400
400
399.816
399.611
399.396
399.175
398.953
398.733
398.515
398.301
398.091
397.885
397.683
397.484
397.29
397.1
396.913
396.729
396.547
396.367
396.188
396.01
395.833
395.658
395.485
395.315
395.147
394.984
394.824
394.67
394.521
394.379
394.48
394.588
394.692
394.79
394.882
400
400
400
400
400
399.816
399.612
399.396
399.176
398.955
398.734
398.517
398.303
398.093
397.887
397.686
397.488
397.294
397.104
396.917
396.733
396.551
396.371
396.192
396.014
395.838
395.663
395.49
395.32
395.152
394.989
394.829
394.675
394.526
394.384
394.485
394.592
394.697
394.795
394.886
400
400
400
400
400
399.816
399.613
399.398
399.178
398.957
398.737
398.52
398.307
398.097
397.892
397.691
397.494
397.3
397.11
396.923
396.739
396.557
396.377
396.198
396.021
395.845
395.67
395.497
395.327
395.16
394.996
394.837
394.682
394.534
394.391
394.492
394.599
394.704
394.802
394.893
400
400
400
400
400
399.816
399.613
399.399
399.179
398.959
398.739
398.522
398.309
398.1
397.895
397.694
397.498
397.305
397.115
396.927
396.742
396.56
396.38
396.202
396.024
395.848
395.674
395.502
395.332
395.165
395.001
394.842
394.687
394.538
394.395
394.496
394.603
394.708
394.806
394.897
400
400
400
400
400
399.817
399.614
399.4
399.181
398.961
398.742
398.525
398.312
398.104
397.899
397.698
397.502
397.309
397.118
396.93
396.745
396.562
396.382
396.204
396.027
395.852
395.678
395.506
395.336
395.169
395.006
394.846
394.691
394.542
394.399
394.5
394.607
394.712
394.81
394.901
400
400
400
400
400
399.817
399.615
399.401
399.183
398.963
398.744
398.527
398.314
398.105
397.901
397.7
397.504
397.31
397.119
396.931
396.745
396.562
396.382
396.204
396.028
395.853
395.679
395.508
395.338
395.172
395.008
394.848
394.693
394.543
394.4
394.5
394.608
394.712
394.81
394.901
400
400
400
400
400
399.818
399.616
399.402
399.184
398.964
398.745
398.529
398.316
398.107
397.902
397.701
397.505
397.311
397.12
396.931
396.745
396.562
396.382
396.204
396.029
395.854
395.681
395.51
395.34
395.174
395.01
394.85
394.695
394.545
394.4
394.501
394.608
394.713
394.811
394.902
400
400
400
400
400
399.819
399.617
399.405
399.186
398.967
398.748
398.531
398.318
398.109
397.903
397.702
397.506
397.312
397.121
396.932
396.746
396.562
396.383
396.205
396.03
395.856
395.683
395.512
395.342
395.176
395.012
394.852
394.696
394.544
394.399
394.499
394.607
394.711
394.809
394.901
400
400
400
400
400
399.819
399.618
399.405
399.187
398.968
398.749
398.532
398.319
398.109
397.903
397.702
397.505
397.311
397.12
396.931
396.745
396.563
396.383
396.206
396.03
395.856
395.684
395.512
395.343
395.176
395.012
394.851
394.695
394.543
394.397
394.498
394.605
394.71
394.808
394.899
400
400
400
400
400
399.82
399.619
399.407
399.189
398.969
398.75
398.533
398.319
398.109
397.903
397.701
397.504
397.311
397.12
396.932
396.746
396.564
396.385
396.207
396.032
395.858
395.685
395.513
395.344
395.177
395.012
394.851
394.694
394.542
394.395
394.495
394.603
394.708
394.806
394.897
400
400
400
400
400
399.82
399.619
399.407
399.189
398.97
398.75
398.533
398.319
398.109
397.902
397.7
397.502
397.309
397.119
396.931
396.746
396.564
396.385
396.207
396.031
395.857
395.683
395.512
395.342
395.174
395.009
394.848
394.69
394.537
394.389
394.49
394.598
394.702
394.801
394.892
400
400
400
400
400
399.82
399.62
399.408
399.19
398.97
398.751
398.534
398.319
398.109
397.902
397.699
397.501
397.308
397.118
396.931
396.746
396.564
396.385
396.206
396.03
395.855
395.681
395.509
395.339
395.171
395.005
394.843
394.685
394.531
394.384
394.484
394.592
394.697
394.796
394.887
400
400
400
400
400
399.82
399.62
399.408
399.19
398.97
398.751
398.533
398.319
398.108
397.901
397.698
397.499
397.305
397.115
396.929
396.744
396.562
396.382
396.203
396.026
395.85
395.676
395.503
395.333
395.164
394.998
394.835
394.677
394.523
394.374
394.475
394.583
394.688
394.787
394.879
400
400
400
400
400
399.82
399.62
399.409
399.191
398.971
398.752
398.534
398.319
398.108
397.901
397.698
397.499
397.305
397.115
396.929
396.744
396.562
396.381
396.201
396.023
395.847
395.673
395.5
395.329
395.16
394.993
394.83
394.671
394.517
394.368
394.469
394.577
394.682
394.781
394.873
400
400
400
400
400
399.82
399.621
399.409
399.191
398.971
398.752
398.534
398.319
398.108
397.9
397.697
397.498
397.304
397.114
396.927
396.742
396.559
396.377
396.197
396.019
395.843
395.668
395.494
395.323
395.154
394.987
394.823
394.663
394.509
394.36
394.461
394.569
394.675
394.774
394.866
400
400
400
400
400
399.821
399.621
399.41
399.192
398.973
398.753
398.536
398.321
398.11
397.902
397.699
397.5
397.306
397.115
396.928
396.743
396.56
396.378
396.198
396.019
395.842
395.667
395.493
395.322
395.152
394.985
394.821
394.661
394.506
394.356
394.457
394.566
394.671
394.771
394.862
400
400
400
400
400
399.821
399.622
399.41
399.193
398.973
398.754
398.536
398.321
398.109
397.902
397.698
397.499
397.305
397.114
396.926
396.741
396.557
396.375
396.194
396.015
395.838
395.662
395.489
395.317
395.147
394.979
394.815
394.654
394.498
394.349
394.45
394.558
394.664
394.763
394.855
400
400
400
400
400
399.821
399.623
399.412
399.195
398.976
398.756
398.539
398.324
398.112
397.904
397.701
397.502
397.307
397.116
396.927
396.741
396.556
396.374
396.192
396.013
395.835
395.659
395.484
395.312
395.141
394.973
394.807
394.646
394.489
394.338
394.439
394.547
394.653
394.752
394.843
400
400
400
400
400
399.822
399.623
399.412
399.194
398.974
398.755
398.536
398.321
398.108
397.899
397.694
397.494
397.297
397.104
396.914
396.725
396.538
396.354
396.17
395.988
395.808
395.629
395.452
395.277
395.103
394.932
394.764
394.599
394.439
394.285
394.386
394.494
394.6
394.698
394.79
400
400
400
400
400
399.822
399.623
399.411
399.192
398.97
398.748
398.527
398.308
398.091
397.878
397.668
397.462
397.26
397.06
396.863
396.668
396.474
396.282
396.091
395.901
395.713
395.526
395.34
395.156
394.974
394.794
394.616
394.442
394.272
394.108
394.21
394.32
394.427
394.525
394.618
400
400
400
400
400
399.818
399.612
399.391
399.162
398.928
398.693
398.457
398.222
397.988
397.757
397.528
397.302
397.079
396.858
396.639
396.421
396.203
395.987
395.772
395.557
395.344
395.131
394.92
394.709
394.501
394.294
394.089
393.887
393.69
393.5
393.614
393.736
393.854
393.962
394.064
400
400
400
400
399.999
399.787
399.543
399.279
399.003
398.721
398.435
398.148
397.861
397.574
397.289
397.006
396.725
396.446
396.17
395.894
395.619
395.344
395.07
394.797
394.524
394.252
393.98
393.71
393.441
393.173
392.907
392.644
392.385
392.132
391.89
392.138
392.376
392.588
392.775
392.939
400
400
400
400
400
399.862
399.703
399.525
399.329
399.121
398.901
398.672
398.436
398.194
397.948
397.699
397.447
397.193
396.938
396.682
396.425
396.167
395.908
395.648
395.386
395.124
394.861
394.599
394.338
394.078
393.82
393.565
393.315
393.071
392.837
392.911
393.005
393.109
393.215
393.313
400
400
400
400
400
399.882
399.748
399.601
399.443
399.275
399.1
398.92
398.734
398.545
398.353
398.16
397.964
397.768
397.572
397.375
397.178
396.98
396.783
396.584
396.386
396.187
395.988
395.789
395.591
395.395
395.2
395.007
394.818
394.632
394.452
394.453
394.468
394.494
394.525
394.56
400
400
400
400
400
399.884
399.755
399.614
399.464
399.306
399.142
398.973
398.802
398.628
398.453
398.277
398.101
397.925
397.749
397.574
397.399
397.225
397.051
396.877
396.703
396.53
396.356
396.184
396.013
395.843
395.675
395.51
395.347
395.189
395.035
395.038
395.051
395.072
395.099
395.13
400
400
400
400
400
399.884
399.755
399.615
399.465
399.308
399.146
398.98
398.812
398.641
398.47
398.299
398.127
397.956
397.786
397.617
397.449
397.282
397.115
396.949
396.783
396.617
396.452
396.288
396.126
395.965
395.806
395.65
395.497
395.348
395.204
395.208
395.223
395.246
395.274
395.306
400
400
400
400
400
399.884
399.756
399.615
399.466
399.309
399.147
398.982
398.814
398.644
398.474
398.304
398.134
397.965
397.796
397.629
397.463
397.298
397.133
396.969
396.806
396.642
396.48
396.319
396.159
396.001
395.845
395.692
395.543
395.397
395.255
395.261
395.277
395.301
395.329
395.362
400
400
400
400
400
399.884
399.755
399.614
399.464
399.308
399.145
398.98
398.811
398.642
398.471
398.301
398.131
397.962
397.794
397.627
397.461
397.297
397.133
396.97
396.807
396.644
396.483
396.322
396.163
396.006
395.851
395.699
395.55
395.405
395.265
395.271
395.287
395.311
395.34
395.373
400
400
400
400
400
399.884
399.755
399.615
399.465
399.308
399.146
398.98
398.812
398.643
398.472
398.302
398.132
397.964
397.796
397.629
397.464
397.3
397.136
396.973
396.81
396.648
396.487
396.326
396.168
396.011
395.856
395.704
395.556
395.411
395.271
395.278
395.294
395.318
395.347
395.38
400
400
400
400
400
399.884
399.755
399.615
399.465
399.308
399.145
398.98
398.811
398.642
398.472
398.302
398.132
397.963
397.795
397.629
397.464
397.3
397.136
396.973
396.81
396.648
396.487
396.327
396.168
396.011
395.857
395.705
395.557
395.412
395.272
395.279
395.295
395.319
395.348
395.381
400
400
400
400
400
399.884
399.756
399.615
399.465
399.309
399.147
398.981
398.813
398.644
398.474
398.304
398.135
397.966
397.799
397.633
397.468
397.304
397.141
396.978
396.815
396.653
396.492
396.332
396.174
396.017
395.862
395.711
395.562
395.418
395.278
395.284
395.301
395.325
395.353
395.387
400
400
400
400
400
399.884
399.756
399.616
399.466
399.309
399.147
398.982
398.814
398.645
398.476
398.306
398.137
397.969
397.802
397.635
397.471
397.307
397.143
396.98
396.818
396.656
396.495
396.335
396.177
396.02
395.866
395.714
395.566
395.421
395.281
395.288
395.304
395.328
395.357
395.391
400
400
400
400
400
399.885
399.756
399.616
399.467
399.311
399.149
398.984
398.817
398.648
398.479
398.31
398.141
397.973
397.806
397.64
397.475
397.311
397.148
396.986
396.823
396.662
396.501
396.341
396.183
396.027
395.872
395.721
395.573
395.428
395.288
395.294
395.311
395.334
395.363
395.397
400
400
400
400
400
399.885
399.757
399.617
399.468
399.312
399.151
398.986
398.818
398.65
398.481
398.312
398.144
397.976
397.809
397.643
397.478
397.314
397.15
396.988
396.826
396.665
396.504
396.345
396.187
396.03
395.876
395.725
395.576
395.432
395.291
395.298
395.314
395.338
395.367
395.4
400
400
400
400
400
399.885
399.757
399.618
399.469
399.314
399.153
398.988
398.821
398.652
398.484
398.315
398.147
397.979
397.812
397.646
397.48
397.316
397.153
396.99
396.829
396.667
396.507
396.348
396.19
396.034
395.88
395.728
395.58
395.435
395.295
395.301
395.317
395.341
395.37
395.404
400
400
400
400
400
399.886
399.758
399.619
399.47
399.315
399.154
398.989
398.822
398.654
398.485
398.316
398.148
397.981
397.813
397.646
397.481
397.316
397.153
396.99
396.829
396.668
396.508
396.349
396.191
396.035
395.881
395.73
395.581
395.436
395.295
395.302
395.318
395.342
395.371
395.404
400
400
400
400
400
399.886
399.758
399.619
399.471
399.316
399.155
398.99
398.823
398.655
398.486
398.317
398.149
397.981
397.814
397.647
397.481
397.316
397.153
396.991
396.83
396.669
396.509
396.35
396.193
396.037
395.883
395.731
395.583
395.438
395.296
395.303
395.319
395.343
395.372
395.405
400
400
400
400
400
399.886
399.759
399.621
399.473
399.318
399.157
398.992
398.825
398.656
398.487
398.319
398.15
397.982
397.815
397.648
397.482
397.317
397.154
396.992
396.831
396.67
396.511
396.352
396.195
396.039
395.885
395.733
395.584
395.438
395.296
395.302
395.318
395.342
395.371
395.404
400
400
400
400
400
399.887
399.76
399.621
399.474
399.318
399.157
398.993
398.825
398.657
398.487
398.318
398.15
397.982
397.814
397.648
397.482
397.317
397.154
396.992
396.831
396.671
396.511
396.353
396.195
396.039
395.885
395.733
395.583
395.437
395.295
395.301
395.317
395.341
395.37
395.403
400
400
400
400
400
399.887
399.761
399.622
399.474
399.319
399.158
398.994
398.826
398.657
398.488
398.318
398.15
397.982
397.815
397.648
397.482
397.318
397.155
396.993
396.832
396.672
396.512
396.354
396.196
396.04
395.885
395.733
395.583
395.437
395.294
395.3
395.316
395.34
395.368
395.402
400
400
400
400
400
399.887
399.761
399.623
399.475
399.32
399.159
398.994
398.826
398.657
398.487
398.318
398.149
397.981
397.814
397.647
397.482
397.318
397.155
396.993
396.832
396.671
396.511
396.353
396.195
396.038
395.883
395.731
395.58
395.433
395.29
395.296
395.312
395.335
395.364
395.398
400
400
400
400
400
399.887
399.761
399.623
399.475
399.32
399.159
398.994
398.827
398.657
398.487
398.318
398.148
397.98
397.814
397.647
397.482
397.318
397.155
396.993
396.831
396.67
396.51
396.351
396.193
396.036
395.881
395.728
395.577
395.43
395.286
395.292
395.308
395.332
395.36
395.394
400
400
400
400
400
399.887
399.761
399.623
399.475
399.32
399.159
398.994
398.826
398.657
398.487
398.317
398.147
397.979
397.812
397.646
397.481
397.317
397.153
396.99
396.828
396.667
396.507
396.347
396.189
396.031
395.876
395.722
395.571
395.423
395.279
395.285
395.301
395.324
395.353
395.387
400
400
400
400
400
399.887
399.761
399.623
399.476
399.321
399.16
398.995
398.827
398.658
398.488
398.317
398.148
397.98
397.813
397.647
397.482
397.317
397.153
396.99
396.828
396.666
396.505
396.345
396.187
396.029
395.873
395.719
395.568
395.419
395.274
395.28
395.296
395.32
395.349
395.382
400
400
400
400
400
399.887
399.761
399.624
399.476
399.321
399.16
398.995
398.827
398.657
398.487
398.317
398.147
397.979
397.812
397.646
397.48
397.315
397.151
396.988
396.825
396.663
396.502
396.342
396.182
396.024
395.868
395.714
395.562
395.413
395.268
395.274
395.29
395.314
395.343
395.376
400
400
400
400
400
399.888
399.762
399.624
399.477
399.322
399.161
398.996
398.829
398.659
398.489
398.319
398.15
397.981
397.814
397.648
397.482
397.317
397.153
396.989
396.826
396.664
396.503
396.342
396.183
396.025
395.868
395.713
395.561
395.412
395.267
395.273
395.289
395.312
395.341
395.374
400
400
400
400
400
399.888
399.762
399.624
399.477
399.322
399.162
398.997
398.829
398.659
398.489
398.319
398.149
397.981
397.813
397.647
397.481
397.315
397.151
396.987
396.823
396.661
396.499
396.338
396.179
396.02
395.863
395.708
395.556
395.406
395.26
395.266
395.282
395.305
395.334
395.367
400
400
400
400
400
399.888
399.763
399.626
399.479
399.324
399.164
398.999
398.832
398.662
398.492
398.322
398.152
397.983
397.816
397.649
397.482
397.316
397.151
396.986
396.822
396.659
396.497
396.336
396.175
396.016
395.858
395.702
395.549
395.398
395.251
395.256
395.272
395.295
395.323
395.356
400
400
400
400
400
399.888
399.763
399.625
399.478
399.323
399.162
398.997
398.829
398.659
398.487
398.316
398.145
397.975
397.805
397.636
397.468
397.3
397.132
396.966
396.799
396.634
396.469
396.305
396.142
395.98
395.819
395.66
395.504
395.35
395.2
395.204
395.218
395.241
395.268
395.3
400
400
400
400
400
399.888
399.763
399.625
399.477
399.32
399.157
398.99
398.818
398.645
398.469
398.293
398.117
397.942
397.766
397.591
397.416
397.241
397.067
396.893
396.719
396.546
396.373
396.2
396.029
395.858
395.689
395.52
395.355
395.191
395.032
395.033
395.046
395.067
395.094
395.125
400
400
400
400
400
399.885
399.756
399.612
399.455
399.29
399.116
398.935
398.75
398.56
398.368
398.174
397.979
397.784
397.588
397.391
397.194
396.996
396.798
396.599
396.401
396.202
396.004
395.806
395.608
395.411
395.214
395.019
394.826
394.635
394.448
394.448
394.462
394.488
394.519
394.554
400
400
400
400
400
399.867
399.711
399.536
399.343
399.136
398.916
398.688
398.452
398.209
397.963
397.713
397.461
397.208
396.953
396.697
396.44
396.181
395.922
395.662
395.401
395.14
394.879
394.618
394.357
394.096
393.836
393.578
393.322
393.071
392.826
392.899
392.993
393.097
393.203
393.302
400
400
400
400
400
399.895
399.777
399.648
399.507
399.355
399.192
399.02
398.84
398.651
398.455
398.253
398.046
397.833
397.616
397.395
397.17
396.943
396.712
396.479
396.242
396.003
395.763
395.521
395.278
395.035
394.792
394.551
394.312
394.077
393.848
393.845
393.855
393.876
393.907
393.934
400
400
400
400
400
399.909
399.809
399.702
399.588
399.467
399.339
399.206
399.067
398.924
398.776
398.624
398.469
398.311
398.151
397.988
397.823
397.656
397.488
397.317
397.145
396.971
396.796
396.621
396.445
396.268
396.093
395.918
395.744
395.573
395.405
395.368
395.337
395.314
395.295
395.28
400
400
400
400
400
399.911
399.814
399.711
399.602
399.488
399.369
399.245
399.118
398.987
398.853
398.716
398.578
398.437
398.296
398.152
398.008
397.863
397.716
397.569
397.42
397.271
397.121
396.971
396.82
396.67
396.521
396.373
396.227
396.083
395.941
395.913
395.889
395.87
395.854
395.843
400
400
400
400
400
399.91
399.814
399.712
399.603
399.49
399.372
399.25
399.125
398.997
398.866
398.734
398.599
398.463
398.327
398.189
398.051
397.912
397.772
397.631
397.49
397.348
397.206
397.064
396.922
396.78
396.64
396.501
396.363
396.228
396.096
396.072
396.052
396.036
396.024
396.016
400
400
400
400
400
399.91
399.815
399.712
399.604
399.491
399.373
399.252
399.127
398.999
398.87
398.738
398.605
398.47
398.335
398.199
398.062
397.925
397.788
397.649
397.51
397.37
397.231
397.091
396.952
396.813
396.676
396.54
396.405
396.274
396.144
396.122
396.103
396.089
396.078
396.072
400
400
400
400
400
399.91
399.814
399.712
399.603
399.49
399.372
399.25
399.125
398.997
398.868
398.736
398.603
398.468
398.333
398.197
398.061
397.925
397.787
397.649
397.511
397.372
397.233
397.094
396.955
396.817
396.68
396.545
396.412
396.281
396.153
396.131
396.113
396.099
396.088
396.084
400
400
400
400
400
399.91
399.814
399.712
399.603
399.49
399.372
399.25
399.126
398.998
398.868
398.737
398.603
398.469
398.334
398.199
398.063
397.927
397.789
397.652
397.513
397.374
397.236
397.097
396.959
396.821
396.685
396.55
396.417
396.286
396.158
396.136
396.118
396.105
396.094
396.09
400
400
400
400
400
399.911
399.815
399.712
399.604
399.49
399.372
399.25
399.125
398.997
398.868
398.736
398.603
398.469
398.334
398.198
398.062
397.926
397.789
397.651
397.513
397.374
397.235
397.096
396.958
396.821
396.684
396.549
396.416
396.286
396.158
396.136
396.118