/*--------------------------------*- C++ -*----------------------------------*\
| =========                 |                                                 |
| \\      /  F ield         | OpenFOAM: The Open Source CFD Toolbox           |
|  \\    /   O peration     | Version:  5.0                                   |
|   \\  /    A nd           | Web:      www.OpenFOAM.org                      |
|    \\/     M anipulation  |                                                 |
\*---------------------------------------------------------------------------*/
FoamFile
{
    version     2.0;
    format      ascii;
    class       volScalarField;
    location    "1600/air";
    object      alphat;
}
// * * * * * * * * * * * * * * * * * * * * * * * * * * * * * * * * * * * * * //

dimensions      [1 -1 -1 0 0 0 0];

internalField   nonuniform List<scalar> 
243000
(
0.000166413
0.000169679
0.000166489
0.000161398
0.000155092
0.000148162
0.000140961
0.000133766
0.000126768
0.000120152
0.000113999
0.000108354
0.000103188
9.85561e-05
9.44798e-05
9.10951e-05
8.85349e-05
8.70561e-05
8.64735e-05
8.77156e-05
8.87068e-05
8.95625e-05
8.97452e-05
8.88164e-05
8.62027e-05
8.3426e-05
0.000362702
0.000361027
0.00032827
0.000356177
0.000722963
0.000765835
0.000775441
0.000774209
0.000766073
0.000753139
0.000736897
0.000718443
0.000698487
0.000677683
0.000656306
0.000634684
0.000612914
0.000591671
0.000571469
0.000553249
0.000537862
0.00052708
0.000522128
0.000519655
0.000518586
0.000515445
0.000507264
0.000492328
0.000471885
0.000444793
0.000414696
0.000375744
0.000339085
0.00032897
0.000778336
0.000821071
0.000833689
0.000833568
0.000825689
0.000812551
0.000795789
0.000776555
0.000755622
0.000733738
0.00071121
0.000688459
0.000665694
0.000643724
0.000623161
0.000605058
0.000590279
0.000580522
0.000575751
0.000574612
0.000574174
0.000571384
0.000563358
0.000548347
0.000526139
0.000497329
0.000462709
0.000420484
0.000378376
0.000348281
0.000801194
0.000845833
0.000862059
0.00086514
0.000859673
0.000848434
0.000833061
0.000814745
0.000794336
0.000772672
0.00075017
0.000727383
0.000704617
0.000682816
0.000662706
0.000645452
0.000631917
0.000623593
0.000619903
0.000619224
0.000618705
0.000615593
0.000607283
0.000592104
0.000569758
0.000540436
0.00050482
0.000460868
0.000415906
0.00037944
0.00080287
0.000847654
0.000870191
0.000878389
0.000876592
0.000868406
0.000855471
0.000839034
0.000820054
0.000799438
0.000777732
0.000755616
0.00073351
0.000712486
0.000693361
0.000677409
0.000665454
0.000658694
0.000656054
0.00065564
0.000654792
0.000651111
0.000642347
0.000627004
0.000604729
0.000575552
0.000540087
0.000496325
0.000449863
0.000409718
0.000791083
0.000836765
0.00086474
0.000878229
0.000881257
0.000876796
0.000867009
0.000853041
0.000836067
0.000817057
0.000796666
0.000775703
0.000754709
0.000734884
0.000717082
0.000702717
0.000692512
0.000687325
0.000685629
0.000685382
0.000684133
0.000679812
0.000670547
0.000655053
0.000632975
0.000604296
0.000569508
0.000526835
0.000479911
0.000437623
0.000767977
0.000816723
0.000849921
0.000868841
0.000876833
0.000876852
0.000870354
0.000859041
0.000844514
0.000827529
0.000808841
0.000789379
0.000769806
0.000751472
0.000735221
0.000722615
0.000714231
0.000710554
0.00070971
0.000709585
0.000707939
0.000703004
0.000693255
0.00067763
0.000655819
0.000627805
0.000593948
0.000552733
0.000506244
0.00046274
0.000735626
0.000789094
0.000827683
0.00085217
0.000865369
0.000869833
0.000867227
0.000859313
0.000847213
0.000832268
0.000815575
0.000797881
0.00077996
0.000763287
0.000748758
0.00073801
0.000731441
0.000729186
0.000729111
0.000729101
0.00072711
0.000721642
0.000711467
0.000695746
0.000674239
0.000646951
0.00061414
0.000574627
0.000529076
0.000485169
0.000697784
0.000756018
0.000800025
0.00082996
0.000848398
0.000857398
0.000858829
0.000854343
0.000845236
0.000832872
0.00081802
0.000802156
0.000786039
0.000771151
0.000758436
0.000749582
0.000744774
0.000743841
0.00074446
0.000744582
0.000742328
0.000736434
0.000725924
0.000710165
0.000688989
0.000662449
0.000630813
0.000592726
0.000548575
0.000505037
0.000660564
0.000721869
0.00076985
0.000803999
0.00082731
0.000840788
0.000846264
0.000845385
0.000839366
0.000829594
0.000817122
0.000803198
0.000788753
0.000775716
0.000764844
0.00075786
0.000754728
0.000755001
0.000756253
0.000756537
0.000754119
0.000747925
0.000737193
0.00072147
0.000700668
0.000674964
0.000644247
0.000607416
0.000565102
0.000522475
0.000626212
0.000686907
0.000738734
0.000777139
0.000804002
0.000821207
0.000830536
0.000833228
0.000830398
0.000823348
0.000813195
0.000801302
0.000788855
0.000777534
0.000768454
0.000763263
0.000761704
0.000763056
0.000764897
0.000765378
0.000762903
0.000756545
0.000745721
0.000730127
0.000709814
0.000684757
0.000654833
0.000619142
0.000578922
0.000537515
0.000599455
0.000651846
0.000706164
0.000749053
0.000780009
0.000800521
0.000812664
0.00081863
0.000818947
0.000814649
0.00080689
0.000797076
0.000786503
0.000776989
0.000769647
0.000766135
0.000766014
0.000768338
0.000770728
0.000771444
0.000769018
0.000762638
0.000751864
0.000736553
0.000716657
0.000692192
0.000662973
0.000628296
0.000590333
0.00055038
0.000586804
0.000619651
0.000672346
0.000719247
0.00075474
0.000779111
0.000794345
0.000802663
0.000805625
0.000803991
0.000798616
0.000790916
0.000782206
0.000774432
0.00076874
0.000766774
0.000767921
0.000771126
0.000774036
0.00077502
0.000772744
0.00076649
0.000755961
0.000740942
0.000721469
0.000697561
0.000668991
0.000635577
0.00059974
0.000561285
0.00059443
0.000597305
0.000639286
0.000687734
0.000727742
0.000756504
0.000775326
0.000786386
0.000791443
0.000791924
0.000788787
0.000783148
0.000776284
0.000770162
0.000766006
0.000765425
0.000767673
0.000771646
0.000775075
0.000776355
0.000774304
0.000768318
0.000758067
0.000743436
0.000724453
0.000701096
0.00067317
0.000641649
0.000607591
0.000570517
0.000623026
0.000594679
0.000612901
0.000656041
0.000699016
0.000732338
0.00075525
0.000769494
0.00077698
0.000779316
0.000777874
0.000774112
0.000768998
0.000764446
0.00076169
0.000762317
0.000765501
0.000770134
0.000774056
0.000775678
0.000773885
0.000768128
0.00075822
0.000744079
0.000725713
0.000702987
0.000675997
0.00064646
0.000614055
0.000578255
0.000666256
0.000620266
0.000604171
0.000629143
0.000669805
0.000706626
0.000733842
0.000751719
0.000762008
0.000766459
0.000766632
0.000764205
0.000760627
0.000757509
0.000756016
0.000757667
0.000761622
0.000766815
0.000771193
0.000773206
0.000771775
0.00076645
0.000756931
0.00074326
0.000725436
0.000703389
0.000678098
0.000650234
0.000619296
0.000584646
0.000717585
0.000667842
0.000624744
0.000617213
0.00064427
0.000680433
0.000711162
0.000732885
0.000746338
0.000753203
0.000755193
0.000754032
0.00075151
0.000749594
0.000749192
0.00075168
0.000756249
0.000761902
0.000766694
0.000769139
0.000768151
0.000763337
0.000754385
0.000741256
0.000724024
0.000702986
0.000679408
0.000653059
0.000623425
0.00058979
0.000767613
0.000722255
0.000670358
0.000631989
0.000630853
0.000657143
0.000688139
0.000713098
0.00072987
0.000739421
0.000743438
0.000743751
0.000742161
0.000740996
0.000741433
0.000744566
0.000749597
0.000755607
0.000760771
0.000763673
0.000763193
0.00075896
0.000750709
0.000738227
0.000721689
0.000702163
0.000680054
0.000655038
0.000626539
0.000593769
0.000815737
0.000776235
0.000726549
0.00067319
0.000640187
0.000643459
0.000667428
0.000693133
0.000712734
0.000725064
0.000731298
0.000733246
0.000732776
0.000732113
0.000733008
0.00073656
0.000741897
0.00074816
0.000753647
0.000757013
0.000757097
0.000753519
0.000746022
0.000734341
0.00071904
0.00070094
0.0006801
0.000656263
0.00062873
0.000596666
0.000862374
0.000826733
0.000782149
0.000727675
0.000674583
0.000647845
0.000654099
0.000674974
0.000695546
0.000710264
0.000718756
0.000722466
0.000723261
0.000723295
0.000724343
0.000727957
0.000733405
0.000739807
0.000745557
0.000749373
0.000750068
0.000747204
0.000740527
0.000729999
0.000716157
0.000699387
0.000679705
0.000656863
0.000630118
0.000598577
0.000907378
0.00087408
0.000834048
0.00078356
0.000724526
0.000674202
0.000654327
0.000662204
0.000679726
0.000695493
0.000705936
0.000711421
0.000713576
0.000714455
0.00071583
0.000719214
0.000724459
0.000730852
0.000736777
0.000740999
0.000742324
0.000740231
0.00073464
0.000725565
0.000713123
0.000697609
0.000678985
0.000656967
0.000630836
0.000599633
0.000950618
0.00091983
0.00088275
0.000836274
0.000778597
0.00071683
0.00067232
0.000659243
0.000667717
0.000681753
0.000693201
0.000700224
0.000703743
0.000705572
0.000707419
0.000710766
0.000715768
0.000721909
0.000727861
0.000732418
0.000734441
0.000733305
0.00072888
0.000721158
0.000710066
0.000695751
0.000678099
0.00065678
0.000631072
0.000599989
0.000992251
0.000963093
0.000928059
0.000884687
0.000830349
0.000766172
0.000705579
0.00066961
0.000662547
0.00067069
0.00068128
0.000689193
0.000693905
0.000696712
0.000699144
0.000702623
0.000707499
0.000713439
0.00071939
0.000724226
0.000726886
0.000726646
0.000723335
0.000716896
0.000707133
0.000694006
0.000677283
0.000656541
0.000631057
0.000599862
0.00103211
0.0010037
0.000969976
0.000928856
0.000877766
0.000815269
0.000747561
0.000693056
0.000667018
0.000664478
0.000671437
0.000679003
0.000684464
0.000688154
0.000691243
0.000694996
0.000699856
0.000705646
0.00071158
0.000716643
0.000719864
0.000720474
0.000718215
0.000713006
0.000704557
0.000692633
0.000676824
0.000656591
0.000631144
0.000599587
0.00106835
0.00104082
0.00100835
0.000969126
0.00092088
0.000861462
0.000792644
0.000726782
0.000682617
0.000665807
0.000665752
0.000671139
0.000676544
0.000680863
0.000684644
0.000688805
0.000693762
0.00069946
0.000705322
0.000710513
0.00071417
0.000715519
0.000714241
0.000710174
0.000702908
0.000692096
0.000677235
0.000657541
0.000632016
0.000599693
0.00110275
0.00107602
0.00104473
0.00100729
0.000961744
0.00090587
0.00083926
0.000768782
0.000710955
0.000678772
0.000668625
0.000669487
0.000673768
0.000678405
0.000682957
0.000687732
0.000692917
0.000698517
0.000704139
0.000709166
0.000712876
0.000714609
0.000713988
0.000710718
0.000704421
0.000694628
0.000680618
0.000661304
0.000635256
0.000601448
0.00113859
0.0011131
0.00108336
0.00104807
0.00100563
0.00095412
0.000892247
0.000823134
0.000758635
0.000713723
0.000692344
0.000686946
0.000689089
0.000693987
0.000699711
0.000705432
0.00071083
0.00071599
0.000720706
0.000724625
0.00072729
0.000728273
0.000727237
0.000723839
0.000717662
0.000708127
0.000694332
0.000674722
0.000647438
0.000610702
0.00118405
0.0011608
0.00113385
0.00110245
0.00106563
0.00102196
0.000969969
0.000910502
0.000850475
0.000802651
0.000775113
0.000765436
0.000766325
0.00077233
0.000779764
0.000786331
0.00079106
0.000794209
0.000795814
0.00079601
0.000794729
0.000791979
0.000787647
0.000781446
0.000772768
0.000760974
0.000745151
0.000723356
0.000692788
0.000650128
0.00127078
0.00125306
0.00123416
0.00121392
0.00119176
0.00116645
0.00113634
0.00110124
0.00106341
0.00103124
0.00101186
0.00100569
0.00100804
0.00101539
0.00102311
0.0010285
0.00103024
0.00102922
0.00102567
0.00102001
0.00101262
0.00100394
0.000994145
0.000982958
0.000968816
0.000951506
0.00093159
0.000906514
0.00087327
0.000828628
0.00155409
0.00155129
0.00155227
0.00155297
0.00155242
0.00154978
0.00154404
0.00153547
0.00152186
0.00150862
0.00149939
0.0014946
0.00149276
0.00149502
0.00149773
0.00149973
0.00149916
0.00149861
0.00149768
0.00149704
0.00149646
0.00149625
0.00149613
0.00149566
0.00148968
0.00147974
0.00147101
0.00145807
0.00143992
0.0014157
0.000201632
0.000209203
0.00020677
0.000201115
0.000193638
0.000185197
0.000176365
0.00016754
0.000158955
0.000150804
0.000143157
0.000136115
0.000129693
0.000124046
0.000119231
0.000115484
0.000112976
0.000112098
0.000112961
0.000115005
0.000117042
0.000117908
0.000116724
0.000112883
0.000106162
9.64405e-05
0.000398824
0.000366808
0.000363878
8.77442e-05
0.000770877
0.000868794
0.000839902
0.00078129
0.000716624
0.000655559
0.000601141
0.000553427
0.000511914
0.000476062
0.000444694
0.000417522
0.000393244
0.000372549
0.000354714
0.000340499
0.000329128
0.000323446
0.000322896
0.000327594
0.000335982
0.000345223
0.000349277
0.000342637
0.000325727
0.000298407
0.000281769
0.000306479
0.000405808
0.000353428
0.001215
0.00140057
0.00141228
0.00135341
0.00127018
0.00118213
0.00109859
0.0010223
0.000953987
0.000893814
0.000840372
0.000793623
0.000751599
0.00071584
0.000685566
0.000661383
0.000641375
0.000629337
0.000621776
0.000619951
0.000623992
0.00063151
0.000631988
0.000618589
0.000586595
0.000536752
0.00047731
0.000423212
0.000446962
0.000489047
0.00148798
0.00173881
0.00179758
0.00176169
0.00168851
0.00159943
0.00150798
0.00142015
0.0013387
0.00126492
0.00119817
0.00113917
0.00108631
0.00104163
0.00100491
0.000976495
0.00095324
0.00093737
0.000923163
0.000912663
0.000907929
0.000907986
0.000901682
0.000878117
0.000832421
0.000764171
0.000679533
0.000581193
0.000529285
0.000531107
0.00162218
0.00188924
0.00199988
0.00201912
0.00197598
0.00190247
0.00181711
0.00173021
0.00164638
0.00156805
0.00149598
0.00143175
0.00137444
0.00132684
0.00128952
0.00126208
0.00124007
0.00122307
0.00120349
0.00118459
0.00117081
0.00116184
0.00114697
0.00111436
0.00105814
0.00097709
0.000876171
0.000752948
0.000650846
0.000602047
0.0016955
0.00196408
0.00211174
0.00216671
0.00215743
0.00210854
0.00203753
0.00196003
0.00188175
0.00180583
0.00173499
0.0016713
0.00161505
0.00156971
0.00153648
0.00151407
0.0014964
0.0014799
0.00145616
0.00143015
0.00140807
0.00139027
0.00136694
0.00132712
0.00126354
0.00117409
0.00106323
0.000926799
0.000794908
0.000703736
0.00171716
0.00197249
0.00214018
0.002228
0.00225325
0.00223447
0.00218851
0.00212398
0.00205346
0.00198494
0.00192118
0.00186273
0.00181186
0.00177318
0.00174767
0.00173341
0.00172224
0.00170689
0.00168015
0.00164861
0.00161931
0.00159311
0.00156278
0.0015174
0.00144919
0.00135527
0.00123886
0.00109585
0.000948384
0.000825322
0.00167887
0.00191285
0.0020985
0.0022188
0.00227967
0.00229153
0.00227136
0.00222832
0.00217542
0.00211862
0.00206108
0.00201157
0.00196921
0.0019408
0.00192586
0.00192221
0.00191882
0.00190505
0.00187625
0.00184065
0.00180575
0.00177381
0.00173792
0.00168736
0.00161631
0.0015208
0.00140275
0.00125766
0.00110292
0.000956229
0.00156344
0.001791
0.00199677
0.00215122
0.00224846
0.00229197
0.00229962
0.00228246
0.00224918
0.00220817
0.00216463
0.00212424
0.0020918
0.00207593
0.00207374
0.00208274
0.00208682
0.00207581
0.00204633
0.00200771
0.0019692
0.00193282
0.00189269
0.00184008
0.00176661
0.00167155
0.00155518
0.0014124
0.00125568
0.00108865
0.00142145
0.00162199
0.00184489
0.00203642
0.002169
0.00224621
0.00228498
0.00229482
0.00228482
0.00226203
0.00223332
0.00220562
0.00218597
0.00218243
0.00219399
0.00221663
0.00222881
0.00222031
0.00219051
0.00215116
0.00211065
0.00207026
0.00202741
0.0019738
0.00190246
0.00180966
0.00169526
0.00155443
0.00139797
0.00121482
0.00128861
0.00143748
0.0016529
0.00187206
0.002048
0.00216233
0.00223504
0.00227314
0.00228697
0.0022846
0.00227233
0.00225921
0.00225305
0.00226349
0.00228896
0.00232507
0.00234612
0.0023413
0.00231254
0.00227322
0.00223192
0.00218911
0.00214444
0.00209129
0.00202375
0.00193312
0.00182046
0.0016838
0.00152819
0.00133497
0.00118402
0.0012662
0.0014501
0.0016762
0.00188362
0.00204202
0.00215569
0.00222221
0.00226092
0.00227925
0.00228492
0.00228781
0.00229661
0.0023218
0.00236085
0.00240982
0.00243965
0.00244037
0.00241354
0.0023756
0.00233472
0.00229118
0.00224624
0.0021946
0.00212818
0.00204147
0.00193175
0.00180296
0.00164564
0.00144869
0.00111702
0.00112992
0.00126289
0.00147217
0.00169406
0.00188692
0.0020391
0.00214491
0.00220986
0.00225017
0.00227463
0.00229443
0.00231926
0.00235843
0.00241162
0.00247258
0.00251128
0.00251809
0.00249567
0.00245944
0.00242044
0.00237913
0.00233353
0.00228204
0.00221723
0.00213421
0.00203
0.00190813
0.00174889
0.00154827
0.0011154
0.00104859
0.00111444
0.00128269
0.0014982
0.00171172
0.00189485
0.00203534
0.00213464
0.00220045
0.00224475
0.00228195
0.00232245
0.00237571
0.0024428
0.0025149
0.0025622
0.00257596
0.00255983
0.00252604
0.00248709
0.00244411
0.00239986
0.00235276
0.00229167
0.00221321
0.00211849
0.00199722
0.00183648
0.00163268
0.00116632
0.00104236
0.00103226
0.0011361
0.00131884
0.00153271
0.00173487
0.00190261
0.00203252
0.00212871
0.00219759
0.00225242
0.00230853
0.00237553
0.00245582
0.00253828
0.00259419
0.00261574
0.00260714
0.00257762
0.00254137
0.00250019
0.00245507
0.00240689
0.00235264
0.00228236
0.00219499
0.00207185
0.00190857
0.00170156
0.00127994
0.00111275
0.00102802
0.00105628
0.00118109
0.00136878
0.00157257
0.00175737
0.00191176
0.00203513
0.00213108
0.0022078
0.00227936
0.00235954
0.00245214
0.00254425
0.00260879
0.00263901
0.00263865
0.00261521
0.00258307
0.00254568
0.00250279
0.00245598
0.00240512
0.00234401
0.0022574
0.00213233
0.0019657
0.00175523
0.0014625
0.00126527
0.00112015
0.00105972
0.00110949
0.00124228
0.00142409
0.00161169
0.00178149
0.00192655
0.00204661
0.00214726
0.00223671
0.00232933
0.00243322
0.00253438
0.00260758
0.00264705
0.00265571
0.00264013
0.0026133
0.00258088
0.00254462
0.00250155
0.00245552
0.00239708
0.00230792
0.00217986
0.00200899
0.00179454
0.00171114
0.00149564
0.00130697
0.0011702
0.00112169
0.0011784
0.00131009
0.00147994
0.00165224
0.00181081
0.00194993
0.00207151
0.00218097
0.00228655
0.00240078
0.00251044
0.00259226
0.00264132
0.00265985
0.00265381
0.00263366
0.00260822
0.00257948
0.00254533
0.00250276
0.00244104
0.00234835
0.00221618
0.00204
0.00182088
0.00201771
0.00179201
0.0015746
0.00137945
0.00124167
0.0011968
0.00125335
0.0013796
0.00153642
0.00169696
0.00184774
0.00198547
0.00211195
0.00223366
0.00235694
0.00247448
0.00256479
0.00262362
0.00265296
0.00265785
0.00264694
0.00263095
0.00261207
0.00258642
0.00254249
0.00247746
0.00238089
0.00224346
0.00206072
0.00183601
0.00236836
0.0021376
0.00190126
0.00166564
0.00145655
0.00131547
0.00127345
0.00132905
0.00144863
0.00159543
0.00174773
0.00189473
0.00203354
0.002169
0.00230394
0.00242856
0.00252711
0.00259582
0.00263712
0.00265482
0.00265648
0.0026505
0.00264102
0.00262118
0.00257536
0.00250853
0.00240828
0.00226426
0.00207358
0.00184201
0.00274253
0.00251006
0.0022614
0.00199864
0.00173909
0.00151868
0.00138016
0.00134387
0.00140205
0.0015175
0.00165839
0.00180505
0.00195004
0.00209455
0.00223692
0.0023702
0.00247815
0.00255729
0.00261021
0.00264113
0.00265544
0.00266075
0.00265914
0.00264173
0.0026035
0.00253688
0.00243113
0.00228017
0.00208084
0.00184134
0.00311264
0.00288102
0.00262557
0.00234618
0.00205398
0.0017769
0.00155712
0.00143008
0.00140852
0.00147156
0.0015868
0.00172144
0.00186351
0.00200845
0.00215111
0.00228651
0.00240029
0.0024895
0.00255434
0.00259877
0.00262693
0.00264414
0.00265274
0.00264763
0.00261694
0.00255041
0.00244183
0.0022885
0.00208265
0.00183555
0.00344328
0.0032155
0.0029595
0.00267342
0.00236413
0.00205219
0.0017738
0.00156917
0.00146645
0.001463
0.00152971
0.00164103
0.0017672
0.00190005
0.00203002
0.00215638
0.00227067
0.00236489
0.00243918
0.00249574
0.00253959
0.00257363
0.00259821
0.0026112
0.00259789
0.00254359
0.00243772
0.00227968
0.00207423
0.00182392
0.00369069
0.00347192
0.00322354
0.00294181
0.00263026
0.00230303
0.00198895
0.00172621
0.00155103
0.00147653
0.00148347
0.00154583
0.00163644
0.00173881
0.00184026
0.00194379
0.0020443
0.00213502
0.00221611
0.00228747
0.002351
0.00240711
0.00245558
0.00249482
0.00250937
0.00248409
0.00239941
0.00225287
0.00204546
0.00179997
0.00380595
0.00360526
0.00337544
0.00311061
0.0028113
0.00248639
0.00215752
0.00185803
0.00162566
0.00148238
0.00142111
0.00141863
0.00145404
0.00150889
0.00157501
0.00164901
0.00172627
0.00180598
0.00188573
0.00196451
0.00204273
0.00211953
0.00219423
0.00226173
0.00231062
0.00232524
0.00228534
0.00217154
0.00199255
0.00175892
0.00375387
0.00358497
0.00338725
0.00315332
0.00288124
0.00257674
0.00225704
0.00195073
0.00169261
0.00150654
0.00139359
0.00133906
0.00133027
0.00135236
0.00139614
0.00144994
0.00150512
0.00156297
0.00162366
0.00168791
0.00175476
0.0018249
0.00189796
0.0019706
0.00203428
0.00207528
0.00207431
0.00201103
0.00186716
0.00167402
0.00355622
0.00343586
0.00328747
0.00310298
0.00287955
0.00262312
0.00234996
0.00208533
0.00185676
0.0016838
0.00156726
0.00150287
0.00148613
0.00150218
0.00154003
0.00158324
0.00162055
0.0016558
0.00169027
0.00172334
0.00175657
0.00179182
0.00182969
0.00186854
0.00190347
0.00192524
0.00191808
0.00186306
0.00174051
0.00154916
0.00336782
0.00330686
0.00321818
0.00309642
0.00293953
0.00275571
0.00256006
0.00237014
0.00220388
0.00207196
0.00197763
0.00192777
0.00191443
0.00192798
0.00195785
0.00199088
0.00201656
0.00204077
0.00206072
0.0020779
0.00209302
0.00210735
0.00212083
0.00213119
0.00213446
0.00212487
0.00209007
0.0020123
0.00187171
0.00165601
0.00326575
0.00324332
0.00321529
0.00316214
0.00308088
0.00297545
0.00285369
0.00273018
0.00261569
0.00251814
0.00244515
0.00240145
0.00238202
0.00238266
0.0023947
0.00241286
0.00242895
0.00244755
0.00246538
0.00248435
0.00250425
0.00252473
0.00254444
0.00256054
0.00256858
0.00256559
0.00254171
0.00248305
0.00237633
0.00221177
0.00324459
0.003245
0.00324469
0.0032239
0.00318224
0.00312764
0.00306031
0.00298641
0.00291219
0.00284781
0.0027942
0.00275398
0.0027271
0.0027144
0.00271033
0.0027168
0.00272676
0.00274254
0.00276304
0.00278928
0.00282005
0.00285356
0.00288752
0.00291946
0.00294586
0.00296851
0.00297804
0.00296724
0.00293771
0.00288421
0.000232554
0.000240016
0.000235449
0.00022852
0.000219914
0.000210313
0.000200318
0.000190361
0.00018069
0.000171513
0.000162895
0.000154958
0.000147687
0.000141287
0.000135828
0.000131656
0.000129093
0.00012919
0.000132415
0.00013733
0.000141425
0.00014307
0.000141368
0.000135732
0.000125728
0.000110793
9.07476e-05
7.90524e-05
0.000363605
9.13269e-05
0.000993
0.00113831
0.00114155
0.00107891
0.000997437
0.000917033
0.00084449
0.000780699
0.000724764
0.000675828
0.00063188
0.000592624
0.000555603
0.000522532
0.000491743
0.000465186
0.00044278
0.000434688
0.000440885
0.000460584
0.000486127
0.000509371
0.000517611
0.000501837
0.000461266
0.00040267
0.00033665
0.000300412
0.000362475
0.00038254
0.00158429
0.00185857
0.00192515
0.00188189
0.00179039
0.00168333
0.00157664
0.00147693
0.00138573
0.00130335
0.00122765
0.00115883
0.00109344
0.00103473
0.000981085
0.000934009
0.000892881
0.00087166
0.000866348
0.000880837
0.000907723
0.00093703
0.000943176
0.000911047
0.000842672
0.000737364
0.000612378
0.000499168
0.000474995
0.000565054
0.0020101
0.00234087
0.00244996
0.00244418
0.0023706
0.00226739
0.00215422
0.00204201
0.00193495
0.00183515
0.0017417
0.00165582
0.00157462
0.00150196
0.00143729
0.00138102
0.00133056
0.00129812
0.00127849
0.00128098
0.00129777
0.00132322
0.00132385
0.0012828
0.00119214
0.00105506
0.000888745
0.000712855
0.000604688
0.00062927
0.00228527
0.00261195
0.00277354
0.00281477
0.00277162
0.00268662
0.00258218
0.00247261
0.00236309
0.00225795
0.002158
0.00206562
0.00197854
0.00190198
0.00183633
0.00177944
0.0017255
0.00168283
0.00164818
0.00163435
0.00164123
0.00165886
0.00165547
0.00160753
0.00150558
0.00135074
0.00115847
0.000943325
0.000770843
0.000723966
0.00245536
0.00276415
0.00295371
0.0030346
0.00303251
0.00297338
0.002886
0.00278994
0.00268691
0.00258539
0.00248766
0.00239673
0.00231224
0.00224009
0.00218102
0.00212941
0.00207484
0.00202176
0.00197256
0.00194428
0.00193886
0.00194878
0.00194152
0.00189174
0.00178581
0.00162382
0.00141854
0.0011803
0.00096481
0.000857173
0.00257598
0.00285512
0.00304416
0.00314861
0.00318014
0.00315793
0.00310277
0.00301591
0.00292207
0.00283125
0.00274324
0.00265992
0.00258493
0.00252436
0.00247744
0.00243493
0.00238121
0.00231719
0.00225442
0.0022131
0.00219704
0.00219833
0.00218739
0.00213961
0.00203547
0.00187448
0.00166635
0.00141923
0.00117549
0.00101897
0.00263694
0.00286293
0.00304714
0.00317247
0.00323706
0.00324928
0.00322449
0.00316588
0.00309686
0.00301723
0.00293572
0.00286461
0.00280409
0.00276136
0.00273089
0.00270022
0.00264741
0.00257279
0.00249809
0.00244584
0.00242065
0.00241298
0.00239863
0.00235359
0.00225929
0.00210442
0.00190286
0.0016539
0.00139661
0.00119565
0.00259786
0.00278889
0.00297162
0.00311889
0.00321755
0.00326578
0.00327297
0.00324674
0.00320039
0.00314157
0.00307926
0.00302232
0.0029774
0.00295639
0.00294566
0.00292906
0.00287597
0.00279239
0.00270836
0.00264663
0.00261415
0.00259851
0.00258083
0.00253897
0.00245586
0.00231471
0.00211891
0.00187507
0.00161384
0.00137885
0.00247985
0.00264251
0.00282722
0.00299896
0.00313377
0.00321958
0.00326148
0.00326777
0.0032495
0.00321498
0.00317428
0.00313756
0.00311442
0.00311481
0.00312533
0.00312362
0.00307036
0.00298013
0.00289015
0.00282153
0.00278235
0.00276001
0.00273918
0.00270143
0.00262741
0.00249973
0.00231446
0.00208235
0.00182238
0.00156278
0.00234333
0.00246356
0.00263794
0.00282777
0.00299579
0.00312077
0.00319956
0.0032394
0.00325138
0.00324431
0.00322828
0.00321547
0.00321616
0.00323999
0.00327353
0.00328553
0.00323183
0.00313808
0.00304384
0.00297313
0.00292914
0.00290186
0.00287857
0.00284331
0.00277439
0.00265914
0.00248933
0.0022745
0.00201871
0.00174805
0.00221241
0.00226623
0.00241725
0.00261616
0.00281335
0.00297655
0.00309481
0.00316991
0.0032139
0.00323559
0.00324658
0.0032603
0.00328783
0.00333498
0.00339238
0.00341658
0.00336676
0.0032728
0.0031782
0.00310587
0.00305838
0.00302848
0.00300302
0.0029666
0.00290191
0.00279791
0.00264786
0.00244617
0.00219695
0.00192091
0.00210065
0.00207121
0.0021842
0.00237844
0.00259661
0.00279475
0.00295203
0.00306547
0.00314364
0.00319521
0.00323474
0.00327621
0.00333046
0.00340314
0.00348342
0.00351912
0.00347569
0.00338653
0.00329363
0.00322172
0.00317413
0.00314148
0.00311218
0.00307492
0.00301429
0.00292337
0.00279068
0.00259835
0.00235545
0.00207699
0.00202449
0.00191197
0.00196787
0.0021363
0.00236019
0.002585
0.0027783
0.00292947
0.00304307
0.00312791
0.00319671
0.00326644
0.00334777
0.00344669
0.00354831
0.00359555
0.00356138
0.00348117
0.00339227
0.00332304
0.00327002
0.00323377
0.00320532
0.0031707
0.00311559
0.00303823
0.00291531
0.00273103
0.00249348
0.00221413
0.00203525
0.0018353
0.00180725
0.00192138
0.00212662
0.00236196
0.00258303
0.00276868
0.00291735
0.00303597
0.00313647
0.00323432
0.00334186
0.00346773
0.00358875
0.00364809
0.00362635
0.0035586
0.0034766
0.0034125
0.00335953
0.00332173
0.0032931
0.00325838
0.00321279
0.00314132
0.00302305
0.00284487
0.00261108
0.00233113
0.0021193
0.00187294
0.00174928
0.00177608
0.00192895
0.00214842
0.00238069
0.00259245
0.00277278
0.00292406
0.00305617
0.00318289
0.00331536
0.00346756
0.00360622
0.00367899
0.00367276
0.00362049
0.00354869
0.00349037
0.00344299
0.00340689
0.00337961
0.00334595
0.00330487
0.00323277
0.00311559
0.00294187
0.00270894
0.00242773
0.00229492
0.00201838
0.00182043
0.00174516
0.00181073
0.00197719
0.00219332
0.0024146
0.00261802
0.00279783
0.0029597
0.0031145
0.00327081
0.00344708
0.00360187
0.00368952
0.00370153
0.00366721
0.00360862
0.00355825
0.00351836
0.00348921
0.00346261
0.0034309
0.00338715
0.00331289
0.00319384
0.00302014
0.00278748
0.00250409
0.00258376
0.00228678
0.00203336
0.00186225
0.00180883
0.00188832
0.00205059
0.00225435
0.00246511
0.00266457
0.00285147
0.00303145
0.00321095
0.00340636
0.00357588
0.00367941
0.00371168
0.00369749
0.00365538
0.00361534
0.00358524
0.00356336
0.0035366
0.00350429
0.0034587
0.00338146
0.00325855
0.0030815
0.00284718
0.00256062
0.00296049
0.00265396
0.00236437
0.00211788
0.00195412
0.00190686
0.00198276
0.00213462
0.00232943
0.00253322
0.00273634
0.00293507
0.00313583
0.00334329
0.00352558
0.00364484
0.00369856
0.00370613
0.00368365
0.00365593
0.00363718
0.00361688
0.00359211
0.00356481
0.00351917
0.0034388
0.0033106
0.00312768
0.00288829
0.00259846
0.00338825
0.00307883
0.00276728
0.00246924
0.00221685
0.0020526
0.00200803
0.00207813
0.00222783
0.00241257
0.00261875
0.0028276
0.00304017
0.00325199
0.00344049
0.00357393
0.00364898
0.00367873
0.00367621
0.00366499
0.00365472
0.00364831
0.00363989
0.00361854
0.00357286
0.00348815
0.00335257
0.00316083
0.00291338
0.00261864
0.00382197
0.00351312
0.00318945
0.00285962
0.00254669
0.00228847
0.00212879
0.00209085
0.00215606
0.00231069
0.002501
0.00270239
0.00291373
0.00312296
0.0033017
0.00344157
0.00353496
0.00358723
0.00360958
0.00361376
0.00361834
0.00362629
0.00363106
0.00361933
0.00357752
0.00349985
0.00336989
0.003178
0.00292469
0.00262282
0.00421303
0.00390774
0.00358006
0.00323423
0.00288575
0.00256375
0.00231062
0.00216529
0.00213802
0.00221274
0.00235847
0.00253567
0.00272462
0.00290862
0.00307775
0.00321638
0.00332508
0.00339629
0.00343946
0.00346776
0.00349371
0.00352289
0.0035479
0.00355686
0.00352928
0.00345233
0.00333115
0.00315596
0.00291057
0.00261087
0.0045132
0.00421628
0.00389322
0.0035451
0.0031817
0.0028237
0.00250592
0.00226962
0.00214335
0.00212541
0.00219456
0.00231515
0.00246352
0.00261319
0.00275291
0.00288334
0.00299809
0.00308163
0.00314689
0.00319994
0.00325339
0.00330864
0.00336016
0.00339741
0.00340141
0.00334727
0.00323333
0.00306244
0.00284421
0.00256586
0.00467938
0.00439939
0.00409151
0.0037545
0.00339383
0.00302334
0.00266947
0.00236862
0.00215556
0.0020437
0.00201968
0.00206295
0.00215219
0.00226505
0.00238268
0.00250264
0.00260837
0.00269773
0.00277477
0.00284614
0.00291961
0.00299438
0.00306795
0.0031312
0.00316737
0.00315426
0.00306906
0.00292302
0.00271351
0.00245983
0.00468644
0.00443589
0.0041568
0.00384592
0.00350568
0.00314537
0.00278557
0.00245748
0.00219539
0.00201898
0.00192359
0.00190359
0.00194615
0.00202779
0.00213603
0.00224132
0.00233149
0.00240963
0.00248032
0.00254923
0.00261684
0.00268658
0.00275778
0.00282383
0.00287134
0.00288153
0.00283285
0.00271091
0.0025331
0.00231828
0.00454938
0.00434537
0.00411359
0.00384833
0.00355031
0.00322722
0.00289763
0.0025898
0.00233462
0.00214721
0.00202845
0.00198659
0.00200775
0.00207239
0.00216761
0.00225485
0.00232326
0.00237923
0.00243142
0.0024764
0.00251796
0.00255932
0.00260109
0.00263954
0.00266527
0.00266369
0.00261535
0.00250497
0.00232606
0.00211256
0.00435114