/*--------------------------------*- C++ -*----------------------------------*\
| =========                 |                                                 |
| \\      /  F ield         | OpenFOAM: The Open Source CFD Toolbox           |
|  \\    /   O peration     | Version:  5.0                                   |
|   \\  /    A nd           | Web:      www.OpenFOAM.org                      |
|    \\/     M anipulation  |                                                 |
\*---------------------------------------------------------------------------*/
FoamFile
{
    version     2.0;
    format      ascii;
    class       volScalarField;
    location    "1600/air";
    object      epsilon;
}
// * * * * * * * * * * * * * * * * * * * * * * * * * * * * * * * * * * * * * //

dimensions      [0 2 -3 0 0 0 0];

internalField   nonuniform List<scalar> 
243000
(
3.33416
4.11544
4.51039
4.74504
4.83391
4.80489
4.67883
4.47857
4.22444
3.93853
3.63533
3.32632
3.0156
2.7148
2.43172
2.18001
1.96914
1.81291
1.77963
1.6643
1.58491
1.49212
1.35572
1.17299
1.02809
0.85078
0.170838
0.149656
0.117386
0.109581
1.72807
2.05433
2.13279
2.12278
2.05664
1.95428
1.83059
1.69651
1.55908
1.42393
1.29343
1.16981
1.05358
0.947872
0.854182
0.77525
0.712638
0.670991
0.648544
0.642884
0.639699
0.628575
0.599257
0.547892
0.476026
0.398091
0.318494
0.242891
0.178819
0.162722
2.15587
2.53098
2.64975
2.6488
2.57455
2.4537
2.30505
2.14201
1.97349
1.80703
1.64572
1.49287
1.34973
1.2206
1.10753
1.01407
0.941994
0.896576
0.874943
0.870412
0.868864
0.856538
0.821025
0.757077
0.66874
0.564358
0.454037
0.341029
0.248485
0.193503
2.35059
2.76613
2.92882
2.96064
2.90511
2.79283
2.64389
2.47343
2.2923
2.10993
1.93103
1.76048
1.60045
1.45665
1.33199
1.23104
1.15577
1.1114
1.09252
1.08957
1.08729
1.07123
1.02851
0.953248
0.849287
0.724561
0.590402
0.449207
0.330018
0.250218
2.36436
2.78301
3.01157
3.098
3.0794
2.99421
2.86258
2.70089
2.52188
2.33657
2.15152
1.97332
1.80535
1.6548
1.52545
1.42308
1.34976
1.3099
1.29508
1.29338
1.28889
1.26757
1.21716
1.13196
1.01543
0.875234
0.723084
0.561134
0.417642
0.315123
2.26084
2.67628
2.95454
3.09559
3.12817
3.08131
2.97948
2.838
2.67214
2.49416
2.31224
2.13468
1.96626
1.81569
1.68736
1.58859
1.52123
1.48829
1.47827
1.4775
1.47002
1.44267
1.38458
1.29076
1.16445
1.01305
0.847841
0.671133
0.507066
0.384157
2.06754
2.48767
2.80439
2.99661
3.08062
3.08125
3.0136
2.89785
2.75355
2.59095
2.41958
2.24934
2.08644
1.94129
1.81858
1.72737
1.66891
1.64438
1.63959
1.6396
1.62884
1.59536
1.53002
1.42884
1.29512
1.13595
0.961758
0.775066
0.595236
0.454301
1.81624
2.24279
2.58916
2.82664
2.96068
3.00724
2.98069
2.90016
2.77966
2.63535
2.48019
2.32253
2.16987
2.03414
1.9208
1.84011
1.7925
1.77719
1.77777
1.7786
1.76472
1.72558
1.65374
1.54649
1.40731
1.24307
1.06322
0.870878
0.679489
0.523706
1.5498
1.97173
2.33746
2.61063
2.78923
2.8795
2.89438
2.84963
2.75977
2.64072
2.50227
2.35976
2.22076
2.09748
1.99614
1.92799
1.89232
1.88653
1.89241
1.89427
1.8778
1.83381
1.75655
1.64458
1.50166
1.33454
1.15218
0.955791
0.757447
0.590793
1.31462
1.71614
2.08245
2.37264
2.58575
2.71478
2.76863
2.76042
2.7022
2.60925
2.49363
2.36868
2.24358
2.13476
2.04704
1.99252
1.96921
1.97271
1.98376
1.98694
1.96864
1.92093
1.83956
1.72431
1.57928
1.41159
1.22736
1.02863
0.828019
0.654193
1.12017
1.47841
1.83963
2.14236
2.37296
2.52898
2.61658
2.64252
2.61605
2.55034
2.4575
2.35162
2.24421
2.1496
2.07603
2.03536
2.0243
2.03651
2.05253
2.05737
2.03817
1.98803
1.90406
1.78706
1.64188
1.47389
1.28886
1.08936
0.890296
0.712398
0.983364
1.2633
1.60652
1.918
2.16642
2.34232
2.45081
2.50558
2.50885
2.46994
2.4004
2.3143
2.22393
2.14487
2.08556
2.05835
2.05881
2.07906
2.0998
2.10662
2.0875
2.03638
1.95143
1.83459
1.68977
1.52239
1.3375
1.13839
0.944003
0.764839
0.92387
1.08553
1.38635
1.69765
1.96222
2.159
2.28849
2.36151
2.388
2.37386
2.32696
2.26073
2.1874
2.12354
2.07803
2.0634
2.07415
2.10172
2.1269
2.13599
2.11793
2.06732
1.98344
1.86753
1.72398
1.55805
1.37423
1.17828
0.989828
0.811242
0.962617
0.973461
1.19187
1.48385
1.75868
1.97607
2.12768
2.22044
2.26384
2.26822
2.24174
2.19446
2.13781
2.08838
2.05575
2.0524
2.07204
2.1059
2.1354
2.147
2.13071
2.08207
2
1.8864
1.74542
1.58183
1.40012
1.21233
1.02919
0.851956
1.11066
0.963096
1.05134
1.28807
1.55821
1.79228
1.96628
2.08008
2.14172
2.16137
2.14968
2.11907
2.0779
2.04197
2.02101
2.02735
2.05438
2.09343
2.12689
2.14132
2.12718
2.08046
2.00116
1.89126
1.75452
1.59465
1.41779
1.23977
1.06238
0.887116
1.36021
1.09632
1.00953
1.13696
1.37092
1.60974
1.80341
1.9389
2.02
2.05591
2.05761
2.03847
2.01051
1.98664
1.97597
1.9903
2.02316
2.06633
2.10327
2.12083
2.10976
2.0668
1.99092
1.88498
1.75249
1.59738
1.43104
1.26161
1.08983
0.91688
1.70125
1.3715
1.12031
1.076
1.22088
1.43729
1.64105
1.79646
1.89763
1.95083
1.96664
1.95795
1.93883
1.92477
1.92272
1.94328
1.98045
2.0267
2.06652
2.08743
2.08009
2.04164
1.97085
1.86975
1.74227
1.59465
1.43937
1.27815
1.1118
0.941335
2.08199
1.73556
1.38742
1.15927
1.14849
1.29545
1.48677
1.65462
1.77449
1.84544
1.87602
1.87874
1.86718
1.85908
1.86335
1.8884
1.92842
1.97668
2.01882
2.0431
2.03997
2.00665
1.94213
1.84689
1.72547
1.58909
1.44352
1.28985
1.12859
0.96057
2.49894
2.15537
1.76818
1.40522
1.20432
1.2182
1.35717
1.5195
1.65223
1.73979
1.7854
1.80006
1.79705
1.79283
1.80031
1.82788
1.86934
1.91857
1.96242
1.98993
1.99135
1.96372
1.90592
1.81787
1.70658
1.58085
1.44389
1.29717
1.14054
0.97476
2.95286
2.60304
2.20569
1.7767
1.41323
1.24692
1.27903
1.40367
1.53555
1.63526
1.69493
1.72166
1.72778
1.72863
1.73699
1.76431
1.80561
1.85475
1.89966
1.93008
1.93626
1.91466
1.86407
1.78583
1.68619
1.57044
1.44145
1.30082
1.14817
0.984219
3.44019
3.07628
2.67408
2.21851
1.75356
1.40951
1.28348
1.32683
1.43352
1.53534
1.60572
1.64375
1.65913
1.66584
1.67625
1.70124
1.74004
1.78791
1.83306
1.86586
1.87673
1.86144
1.81994
1.75353
1.66493
1.55859
1.43697
1.30153
1.15218
0.989494
3.95643
3.58478
3.1699
2.69659
2.17704
1.69734
1.39598
1.31139
1.35984
1.4464
1.52036
1.56725
1.59135
1.60432
1.61766
1.64175
1.67789
1.72278
1.76703
1.80155
1.81742
1.80959
1.77745
1.72181
1.6437
1.54628
1.43145
1.3005
1.15354
0.991314
4.49996
4.11571
3.68379
3.19235
2.64066
2.07426
1.61701
1.37727
1.33015
1.37779
1.44345
1.49433
1.52545
1.5445
1.56139
1.58575
1.62014
1.66256
1.70578
1.74153
1.76173
1.76066
1.73717
1.6915
1.6235
1.53478
1.4264
1.29917
1.15353
0.990728
5.06599
4.65973
4.2064
3.6948
3.11919
2.49974
1.92561
1.53028
1.35956
1.34102
1.38226
1.42916
1.46402
1.48819
1.5089
1.53446
1.56795
1.60839
1.65053
1.68715
1.71097
1.71607
1.70051
1.66414
1.6059
1.52579
1.4236
1.29956
1.15406
0.989395
5.6201
5.19703
4.72632
4.1967
3.60161
2.94924
2.29679
1.76749
1.45987
1.35077
1.34827
1.38042
1.4139
1.44137
1.46601
1.49366
1.52712
1.56619
1.60709
1.64396
1.67047
1.68077
1.67235
1.64438
1.59469
1.52233
1.4263
1.30528
1.1589
0.989933
6.18243
5.74368
5.25729
4.71268
4.10262
3.42911
2.72691
2.09399
1.65206
1.43341
1.36714
1.37095
1.3969
1.42597
1.45522
1.4866
1.52137
1.55962
1.59872
1.63433
1.66112
1.67413
1.67045
1.6481
1.60501
1.53914
1.44784
1.32786
1.17681
0.998631
6.80685
6.35945
5.86322
5.30894
4.69019
4.00646
3.27669
2.57144
2.00972
1.66909
1.51988
1.48239
1.49524
1.52704
1.56529
1.6045
1.64238
1.67938
1.71389
1.74312
1.76348
1.77155
1.76479
1.74077
1.69699
1.63044
1.537
1.41023
1.24571
1.04534
7.65618
7.21308
6.72177
6.17842
5.57988
4.92189
4.20835
3.47973
2.83278
2.37657
2.1357
2.05342
2.05859
2.10642
2.16758
2.22305
2.26397
2.29197
2.30695
2.30976
2.29978
2.27706
2.24083
2.18905
2.11746
2.02229
1.89884
1.7369
1.52563
1.26075
9.45809
9.0661
8.66074
8.24051
7.79665
7.30944
6.75692
6.14755
5.53124
5.03783
4.75241
4.66056
4.68952
4.79041
4.89934
4.9769
5.00241
4.98818
4.93774
4.85748
4.75382
4.63389
4.50069
4.35135
4.16684
3.94796
3.70551
3.41414
3.05197
2.60794
17.2264
17.1323
17.1643
17.1865
17.1667
17.0772
16.8852
16.6015
16.1582
15.732
15.4372
15.2832
15.2219
15.2872
15.368
15.4287
15.411
15.3941
15.3659
15.3467
15.3297
15.3242
15.3212
15.3073
15.1243
14.8243
14.5649
14.1833
13.6605
12.9868
5.93087
7.71338
8.64023
9.18108
9.40839
9.38444
9.16482
8.80064
8.32982
7.78872
7.20057
6.59562
5.98927
5.415
4.8895
4.4442
4.09442
3.87348
3.77689
3.74395
3.65317
3.41152
2.98675
2.41203
1.77343
1.16585
0.174073
0.14983
0.130045
0.488677
3.74982
4.37891
4.79462
5.03628
5.12766
5.08826
4.94247
4.71964
4.44338
4.13433
3.80914
3.48246
3.16666
2.87494
2.62019
2.41633
2.2748
2.21345
2.23702
2.30161
2.32471
2.2437
2.03937
1.73391
1.3647
0.985438
0.615122
0.338679
0.286515
0.224386
3.299
3.73958
4.02448
4.18692
4.24826
4.2199
4.11261
3.94363
3.72928
3.48573
3.2269
2.96562
2.71267
2.48082
2.2815
2.12973
2.03453
2.00969
2.05765
2.13908
2.18433
2.13901
1.98653
1.73516
1.42367
1.08728
0.762445
0.471093
0.341995
0.288416
3.0048
3.36733
3.61091
3.75453
3.81872
3.8131
3.74093
3.61299
3.44165
3.24045
3.02167
2.79764
2.57828
2.3779
2.20812
2.08428
2.01425
2.0097
2.06626
2.14788
2.19508
2.16085
2.02782
1.80566
1.52242
1.20753
0.893524
0.592873
0.401855
0.297147
2.72303
3.01983
3.25116
3.40261
3.48664
3.51026
3.47384
3.38343
3.24951
3.08403
2.89837
2.70452
2.51261
2.33787
2.19204
2.09138
2.04254
2.05407
2.11572
2.19304
2.23453
2.20152
2.07893
1.8746
1.61145
1.31404
1.01104
0.710246
0.483458
0.339548
2.41066
2.65948
2.89253
3.06325
3.17531
3.23082
3.22985
3.17497
3.0757
2.94317
2.78829
2.62281
2.45669
2.30611
2.18315
2.10476
2.07639
2.10251
2.16763
2.23865
2.27192
2.23562
2.11857
1.92672
1.68045
1.40045
1.11085
0.81741
0.574299
0.402613
2.07091
2.28806
2.52897
2.7246
2.86769
2.95516
2.98635
2.96488
2.89828
2.79751
2.6727
2.53509
2.39442
2.26752
2.1672
2.11088
2.10258
2.14221
2.2099
2.27408
2.29831
2.25761
2.14258
1.96032
1.72899
1.46627
1.19235
0.911655
0.664725
0.475721
1.71632
1.91433
2.16899
2.39009
2.56344
2.67723
2.73442
2.74384
2.70973
2.64149
2.54679
2.43687
2.3217
2.21808
2.14009
2.10546
2.1162
2.1683
2.23797
2.29566
2.31086
2.26357
2.14917
1.97625
1.75899
1.5135
1.25626
0.991309
0.749441
0.55165
1.37954
1.56189
1.82718
2.07018
2.26855
2.40047
2.48122
2.51829
2.51454
2.47584
2.41062
2.32868
2.23836
2.15768
2.1013
2.08752
2.11641
2.17896
2.24977
2.3021
2.30869
2.25571
2.14192
1.97565
1.77307
1.54472
1.30451
1.05635
0.825335
0.625911
1.1537
1.30363
1.54595
1.78758
1.99458
2.1377
2.23895
2.30074
2.32348
2.31147
2.27146
2.21331
2.1462
2.0875
2.0517
2.05734
2.10214
2.17432
2.24652
2.29347
2.29286
2.2367
2.12407
1.96495
1.77363
1.56249
1.33913
1.10793
0.890794
0.696089
1.0034
1.11513
1.32973
1.5641
1.76245
1.90341
2.01727
2.09653
2.14013
2.15043
2.13183
2.09407
2.04765
2.00919
1.99263
2.01571
2.07421
2.15366
2.22648
2.26953
2.26386
2.20608
2.0967
1.94568
1.76615
1.56971
1.36236
1.14796
0.94611
0.759196
0.910252
0.974937
1.15735
1.38103
1.57583
1.71571
1.82704
1.9119
1.9687
1.9944
1.9933
1.97332
1.94513
1.92483
1.92542
1.96361
2.03318
2.11799
2.19115
2.23098
2.2224
2.16491
2.0613
1.91929
1.7519
1.5683
1.37647
1.1803
0.99269
0.815085
0.871127
0.877072
1.01842
1.22297
1.41608
1.56269
1.67372
1.75582
1.81406
1.84801
1.85935
1.85391
1.84113
1.83653
1.85143
1.90215
1.98004
2.06846
2.14138
2.17901
2.16954
2.11452
2.01801
1.88671
1.73189
1.5614
1.38421
1.2057
1.03152
0.86368
0.905252
0.83191
0.91124
1.08167
1.26987
1.42986
1.54686
1.62766
1.68244
1.71648
1.73413
1.73877
1.73815
1.746
1.77235
1.83267
1.91608
2.00638
2.0786
2.1151
2.10653
2.05595
1.96786
1.84878
1.70697
1.5502
1.38909
1.22574
1.06369
0.905297
1.01426
0.871973
0.866705
0.981229
1.14278
1.30893
1.43612
1.51854
1.57128
1.6037
1.62186
1.63113
1.63848
1.65527
1.69
1.75673
1.84291
1.93345
2.00463
2.04105
2.03507
1.99074
1.91244
1.80664
1.67825
1.53686
1.39107
1.24138
1.09007
0.940356
1.19788
1.00392
0.902504
0.932971
1.0519
1.20111
1.33441
1.42224
1.47584
1.50745
1.52503
1.53418
1.54471
1.56656
1.60632
1.67622
1.76258
1.85182
1.9217
1.95901
1.95708
1.92045
1.85306
1.76061
1.64732
1.52258
1.39073
1.25332
1.11141
0.969368
1.45653
1.23497
1.0528
0.969477
1.01055
1.11732
1.24097
1.33469
1.39202
1.42448
1.4419
1.45023
1.45972
1.48227
1.52362
1.59346
1.67767
1.7642
1.83256
1.87144
1.87484
1.84697
1.79152
1.71299
1.61727
1.50821
1.38924
1.26242
1.12845
0.992925
1.78308
1.55103
1.32147
1.13142
1.05105
1.08191
1.1676
1.25712
1.31764
1.35227
1.37037
1.37831
1.38629
1.40525
1.4447
1.51148
1.59148
1.67403
1.74069
1.78159
1.79132
1.7732
1.73062
1.66841
1.58939
1.49487
1.38737
1.26946
1.14193
1.01172
2.17388
1.93725
1.68604
1.42303
1.21642
1.12755
1.13758
1.19824
1.25445
1.29009
1.30921
1.31732
1.32433
1.33949
1.37347
1.43455
1.50865
1.58613
1.65103
1.69439
1.71125
1.70452
1.6764
1.62929
1.56583
1.48407
1.38613
1.27538
1.15268
1.02645
2.62608
2.38354
2.11993
1.81688
1.51223
1.28805
1.18735
1.17818
1.21057
1.24051
1.25903
1.26736
1.27412
1.28697
1.31657
1.36978
1.43683
1.50851
1.57225
1.61906
1.64432
1.64822
1.63272
1.60006
1.54969
1.47793
1.3871
1.28156
1.16176
1.03795
3.14024
2.88944
2.61257
2.28359
1.91505
1.57254
1.33788
1.22488
1.20153
1.21147
1.22396
1.23129
1.23855
1.25114
1.27955
1.32806
1.39003
1.45701
1.51874
1.56751
1.59889
1.6118
1.60797
1.58781
1.54543
1.48029
1.39449
1.29091
1.17116
1.04757
3.72577
3.46505
3.17029
2.81545
2.40102
1.96924
1.60539
1.36661
1.2546
1.21955
1.21535
1.21855
1.22715
1.24307
1.27542
1.32513
1.38597
1.4502
1.50977
1.55831
1.5929
1.6126
1.6177
1.60595
1.57075
1.50929
1.42091
1.3113
1.18568
1.05764
4.41067
4.13715
3.81939
3.43323
2.97664
2.47645
2.00328
1.63503
1.40883
1.30198
1.2638
1.25725
1.26907
1.29455
1.34074
1.40173
1.46816
1.53325
1.59092
1.63725
1.67071
1.69066
1.69676
1.68466
1.64825
1.58299
1.48587
1.3613
1.217
1.07464
5.26194
4.97317
4.62825
4.20639
3.70765
3.15069
2.589
2.09943
1.74831
1.54736
1.45709
1.43403
1.45553
1.50593
1.58659
1.67831
1.76299
1.83545
1.88956
1.92529
1.94397
1.94705
1.93308
1.90039
1.84315
1.75501
1.63094
1.47416
1.29308
1.11596
6.43816
6.1369
5.76848
5.31734
4.78771
4.19475
3.57398
2.98849
2.52314
2.22354
2.07598
2.04363
2.1022
2.22296
2.39334
2.56175
2.68772
2.76856
2.80164
2.79156
2.74586
2.67395
2.58162
2.47116
2.33848
2.17631
1.97706
1.74207
1.47821
1.22413
8.33807
8.04358
7.68316
7.24875
6.7503
6.19849
5.61016
5.02558
4.53542
4.21427
4.08361
4.13522
4.35623
4.70057
5.1192
5.4772
5.68084
5.7392
5.65591
5.45422
5.16744
4.82993
4.4681
4.09643
3.71729
3.32484
2.90718
2.46018
1.98613
1.53535
12.0432
11.8287
11.5845
11.3134
11.0434
10.783
10.5174
10.263
10.085
10.0777
10.3107
10.8199
11.5907
12.5493
13.545
14.285
14.6024
14.5284
14.0676
13.3005
12.3166
11.2176
10.0812
8.951
7.84908
6.78096
5.73221
4.68198
3.61845
2.61464
20.3764
20.3649
20.4397
20.612
20.9812
21.5369
22.1901
22.8641
23.5669
24.4571
25.6294
27.1427
28.9149
30.8138
32.5155
33.6408
34.0429
33.731
32.6761
31.0344
28.9429
26.5887
24.1178
21.6059
19.0904
16.6129
14.176
11.7305
9.2385
6.82495
35.455
35.6282
36.3985
37.5567
39.1857
40.9929
42.6774
44.2261
45.5487
47.0959
48.9605
51.0435
53.0844
54.9544
56.1974
56.7028
56.6308
55.8947
54.488
52.5395
50.1743
47.5536
44.7756
41.888
38.8194
35.5806
32.1656
28.5118
24.5484
20.4635
42.8034
43.14
44.7884
46.8161
48.5686
49.7699
50.528
51.125
51.7771
52.7928
54.1274
55.4041
56.2187
56.6133
56.1009
55.0716
54.1281
53.0011
51.762
50.4574
49.2065
48.061
47.0393
46.1228
45.181
44.1456
42.9695
41.6831
40.2376
38.5669
9.10124
11.6495
12.7584
13.4703
13.7829
13.7449
13.4301
12.91
12.2362
11.4589
10.6093
9.73223
8.84492
8.00224
7.22993
6.58615
6.11046
5.93142
6.08845
6.37671
6.44627
6.09617
5.30776
4.19526
2.94998
1.77168
0.850435
0.647741
0.129815
0.550271
5.36704
6.07566
6.44213
6.69613
6.79877
6.74988
6.57307
6.29938
5.95589
5.56612
5.15152
4.72899
4.316
3.92751
3.58824
3.31983
3.15907
3.17876
3.41561
3.72907
3.89769
3.80236
3.44888
2.90671
2.25448
1.55753
0.915603
0.475289
0.33909
0.253433
4.84909
5.28508
5.53286
5.66962
5.6992
5.62914
5.4736
5.24825
4.96887
4.65196
4.31445
3.97072
3.63586
3.3247
3.05776
2.85821
2.75364
2.80388
3.03457
3.32946
3.51043
3.47452
3.22995
2.81895
2.28543
1.69585
1.11674
0.624322
0.407766
0.306011
4.56512
4.88536
5.09693
5.21367
5.23968
5.18362
5.05481
4.865
4.62569
4.35013
4.05312
3.74823
3.44964
3.17473
2.94365
2.77925
2.70527
2.77178
2.98646
3.24757
3.41607
3.39654
3.19558
2.83922
2.3764
1.8463
1.30288
0.794628
0.483815
0.326727
4.27899
4.50657
4.70288
4.83044
4.88018
4.8572
4.76391
4.61099
4.40895
4.16986
3.90735
3.63451
3.36663
3.12203
2.92124
2.78819
2.74353
2.82585
3.0265
3.25709
3.39451
3.37286
3.1877
2.86845
2.45189
1.96876
1.46091
0.95813
0.590765
0.379881
3.93653
4.08357
4.27424
4.42533
4.51246
4.53179
4.48128
4.36897
4.20568
4.0037
3.77617
3.53614
3.29911
3.08535
2.91574
2.81536
2.80198
2.90084
3.08847
3.2851
3.39239
3.35655
3.17673
2.88011
2.49982
2.05812
1.58684
1.10555
0.712509
0.457943
3.55451
3.62813
3.80986
3.98583
4.11495
4.17946
4.17598
4.10682
3.98443
3.82156
3.63113
3.42618
3.22183
3.0409
2.90495
2.83998
2.85936
2.97499
3.15039
3.3141
3.38931
3.33576
3.15569
2.87315
2.52227
2.11777
1.68295
1.23103
0.835509
0.550713
3.13917
3.15443
3.32449
3.52188
3.69098
3.8005
3.84222
3.81841
3.73884
3.6165
3.46472
3.29663
3.12785
2.98174
2.88175
2.85452
2.90743
3.03873
3.20211
3.33461
3.37863
3.30676
3.12352
2.85235
2.52171
2.15189
1.7527
1.33352
0.950504
0.649967
2.69775
2.6763
2.83761
3.05159
3.25453
3.40436
3.48798
3.50756
3.47111
3.38981
3.27763
3.14752
3.01602
2.90682
2.84444
2.85632
2.94209
3.08682
3.23786
3.34302
3.35699
3.26746
3.08089
2.81983
2.50833
2.16629
1.80007
1.41447
1.05169
0.74677
2.2511
2.21428
2.37279
2.59773
2.82564
3.00694
3.12634
3.18377
3.18797
3.14679
3.07383
2.98181
2.8881
2.81725
2.79345
2.84452
2.96063
3.11575
3.25368
3.33412
3.32211
3.21737
3.02909
2.77805
2.48456
2.16476
1.82949
1.47739
1.13748
0.83569
1.88849
1.82714
1.97034
2.19493
2.43044
2.62832
2.77256
2.86025
2.89841
2.8944
2.85878
2.80375
2.74741
2.7152
2.72948
2.81865
2.96323
3.12503
3.25167
3.30718
3.27333
3.15683
2.96979
2.72922
2.45301
2.15484
1.84625
1.52664
1.20783
0.9144
1.60893
1.514
1.63117
1.84479
2.07992
2.28608
2.44433
2.55011
2.61446
2.64051
2.6386
2.61815
2.59775
2.60296
2.65333
2.77828
2.9453
3.1103
3.2248
3.2602
3.21017
3.08656
2.90388
2.67491
2.41594
2.13923
1.85723
1.56211
1.26336
0.981185
1.40862
1.27448
1.35513
1.54671
1.77381
1.98223
2.1484
2.2677
2.34802
2.39509
2.41984
2.43006
2.44291
2.4819
2.56649
2.72316
2.90736
3.07221
3.17536
3.19392
3.13319
3.00738
2.83163
2.6165
2.37567
2.12174
1.86155
1.58611
1.30516
1.0354
1.2916
1.11514
1.14617
1.30157
1.51085
1.71596
1.88612
2.01359
2.10514
2.16714
2.21009
2.24465
2.2859
2.35476
2.47031
2.65337
2.84912
3.01144
3.10384
3.10987
3.04357
2.92018
2.7545
2.55583
2.33513
2.10362
1.85897
1.6003
1.33478
1.07753
1.27535
1.05699
1.01815
1.11862
1.2946
1.48731
1.65693
1.7889
1.88772
1.9602
2.01636
2.06717
2.13059
2.2244
2.36621
2.56957
2.77154
2.92953
3.0124
3.01063
2.94363
2.82704
2.67487
2.49583
2.29853
2.08431
1.8524
1.60666
1.35397
1.1086
1.345
1.10786
0.994156
1.01636
1.13693
1.30111
1.46174
1.59398
1.69676
1.77595
1.84141
1.90299
1.98109
2.09398
2.25624
2.47334
2.67695
2.82963
2.90508
2.90018
2.8371
2.73162
2.59693
2.44251
2.26545
2.06445
1.84297
1.60641
1.36443
1.12995
1.50801
1.26142
1.08986
1.01731
1.05979
1.17056
1.30631
1.43095
1.53335
1.61574
1.687
1.75626
1.84218
1.96754
2.14378
2.36838
2.57024
2.71737
2.7883
2.78475
2.73032
2.64053
2.53005
2.39792
2.2357
2.04556
1.83213
1.60269
1.36808
1.14305
1.7832
1.52735
1.31458
1.15728
1.09096
1.11963
1.20471
1.30646
1.40059
1.48159
1.55527
1.62934
1.72086
1.85117
2.03489
2.26171
2.46001
2.60227
2.67205
2.6751
2.63535
2.56871
2.47965
2.3628
2.2119
2.02966
1.82153
1.59682
1.36694
1.14961
2.17165
1.90227
1.65877
1.43444
1.26162
1.17738
1.17854
1.23454
1.30575
1.37801
1.44996
1.52634
1.62238
1.75546
1.94113
2.16637
2.36153
2.50109
2.57377
2.59209
2.57162
2.52402
2.45028
2.34204
2.19758
2.0193
1.81318
1.59056
1.36347
1.15133
2.67207
2.38217
2.10849
1.83243
1.57059
1.36784
1.25809
1.23237
1.26281
1.31478
1.37898
1.45541
1.55755
1.69725
1.88589
2.10721
2.30333
2.44641
2.52876
2.55928
2.5535
2.5169
2.44842
2.34303
2.1975
2.01772
1.80976
1.58627
1.35956
1.15044
3.29059
2.9716
2.66151
2.33781
2.00482
1.69685
1.46598
1.33639
1.2953
1.30912
1.36023
1.43606
1.54694
1.69883
1.90447
2.13455
2.33744
2.48528
2.57407
2.61286
2.61561
2.58364
2.51595
2.40772
2.25146
2.05144
1.8256
1.5904
1.3583
1.14933
4.04938
3.69282
3.33779
2.96284
2.56685
2.17168
1.8282
1.58335
1.45069
1.40905
1.43459
1.51073
1.63996
1.82216
2.06524
2.32511
2.54495
2.70178
2.79549
2.83493
2.8319
2.78662
2.70015
2.56935
2.3886
2.15886
1.89446
1.62482
1.37169
1.1533
5.00328
4.6023
4.19582
3.7656
3.31006
2.84309
2.40633
2.05324
1.82088
1.71252
1.7066
1.79075
1.95959
2.20473
2.5323
2.86027
3.11699
3.29062
3.38259
3.40395
3.36312
3.26632
3.12013
2.92638
2.68327
2.39309
2.06716
1.7365
1.42933
1.17825
6.27766
5.83068
5.37467
4.89485
4.39138
3.8747
3.37668
2.94578
2.63329
2.46974
2.44962
2.57597
2.84108
3.22682
3.73494
4.2039
4.53421
4.72853
4.79385
4.74122
4.58596
4.34896
4.05105
3.7062
3.31982
2.89713
2.44907
2.0042
1.59613
1.26825
8.15464
7.67922
7.19897
6.70258
6.19333
5.68276
5.19607
4.77223
4.46743
4.33383
4.39502
4.68386
5.19524
5.89976
6.77486
7.51051
7.96161
8.15852
8.11174
7.84103
7.39021
6.81021
6.15382
5.46268
4.75523
4.04173
3.33092
2.64678
2.02394
1.52043
11.299
10.8578
10.4252
10.0022
9.59828
9.23438
8.93581
8.73146
8.66852
8.81932
9.23723
9.98343
11.0522
12.3886
13.8961
15.0375
15.6289
15.7542
15.4054
14.6512
13.5785
12.2916
10.901
9.49467
8.11684
6.78887
5.51608
4.30971
3.1999
2.28055
17.2728
16.9704
16.7013
16.5183
16.4316
16.4907
16.713
17.1008
17.6809
18.5231
19.7055
21.2984
23.2713
25.5023
27.7489
29.242
29.8708
29.767
28.9121
27.4412
25.4814
23.1939
20.729
18.2172
15.7349
13.3264
11.0155
8.78386
6.6466
4.76308
28.4109
28.4442
28.5979
28.8864
29.394
30.202
31.232
32.4422
33.8428
35.5324
37.5939
40.0516
42.8076
45.5742
47.8925
48.9356
49.1021
48.4567
47.0879
45.1103
42.6594
39.8768
36.8566
33.6555
30.2948
26.8084
23.2872
19.7
16.0273
12.504
43.3282
43.4202
44.4182
45.8703
47.5069
49.0465
50.4804
51.904
53.426
55.2523
57.4329
59.7894
62.0498
63.6109
63.9671
62.698
61.3771
59.7393
58.0271
56.186
54.3583
52.6054
50.9023
49.1152
47.0768
44.6806
41.7058
38.2182
34.2495
30.0214
47.2963
48.0148
49.7897
51.9137
53.8142
55.2146
56.1457
56.8813
57.7064
58.8318
60.1811
61.3793
62.0196
61.8326
60.3359
57.5568
55.3606
53.2571
51.5284
50.1018
49.0981
48.4898
48.2151
48.1184
48.0055
47.7303
47.2125
46.4572
45.4428
44.2387
12.544
15.835
17.0934
17.7801
18.0944
18.015
17.6003
16.9285
16.0591
15.0524
13.9409
12.7825
11.5919
10.4498
9.39287
8.52574
7.9674
8.13253
9.13156
10.2891
10.7436
10.2253
8.86887
6.9744
4.85239
2.82196
1.24864
0.150315
0.555021
0.567937
7.17101
7.98475
8.33356
8.51654
8.58384
8.50267
8.27668
7.93499
7.50822
7.02157
6.49973
5.95992
5.42876
4.92083
4.47836
4.13041
3.97112
4.22392
4.96025
5.75664
6.13001
5.96246
5.37561
4.52457
3.52619
2.42321
1.36855
0.532108
0.317154
0.261153
6.53793
6.96235
7.17152
7.26523
7.25646
7.14464
6.93713
6.64591
6.2891
5.88344
5.44828
4.99775
4.55567
4.13997
3.78556
3.52268
3.42247
3.66808
4.29808
4.97605
5.33093
5.25557
4.84596
4.23098
3.45194
2.5473
1.63282
0.791947
0.409604
0.284706
6.26375
6.51319
6.69034
6.78239
6.7803
6.68524
6.50445
6.24741
5.92858
5.5619
5.16494
4.75078
4.34403
3.96669
3.65308
3.43311
3.37194
3.62426
4.17973
4.75929
5.07688
5.0246
4.68974
4.15876
3.48354
2.69406
1.85984
1.02817
0.525958
0.318652
5.98221
6.11348
6.28162
6.39912
6.43429
6.38089
6.23815
6.01753
5.73365
5.40039
5.03434
4.65032
4.27329
3.92736
3.64895
3.46968
3.45312
3.72257
4.22845
4.71968
4.97557
4.91423
4.60664
4.11924
3.51333
2.80582
2.04037
1.24456
0.668519
0.384569
5.61908
5.66173
5.82516
5.9802
6.06658
6.06751
5.97313
5.7955
5.55109
5.25487
4.92371
4.57216
4.22727
3.91595
3.67487
3.54216
3.57817
3.87112
4.3308
4.74465
4.92934
4.84217
4.53795
4.07698
3.51407
2.87608
2.1764
1.43159
0.826934
0.477655
5.18394
5.15497
5.31055
5.5007
5.64201
5.69924
5.66086
5.53291
5.3346
5.08152
4.79186
4.47746
4.16914
3.89675
3.70104
3.62323
3.71897
4.03719
4.45335
4.78617
4.90249
4.7805
4.46928
4.02505
3.49604
2.91214
2.27344
1.58602
0.985475
0.58866
4.69611
4.60054
4.74719
4.96572
5.1577
5.27051
5.29103
5.21885
5.07175
4.86692
4.62457
4.35487
4.08787
3.86124
3.718
3.70306
3.86345
4.20356
4.5758
4.83077
4.87854
4.71826
4.39631
3.96363
3.46249
2.91903
2.33765
1.70951
1.13243
0.707637
4.16957
4.01118
4.15155
4.39199
4.62692
4.79193
4.86918
4.85509
4.76292
4.6108
4.42076
4.20142
3.98216
3.80731
3.72339
3.7785
4.00395
4.3589
4.68488
4.86563
4.8482
4.65091
4.31837
3.89518
3.41803
2.90962
2.37766
1.80811
1.2619
0.824456
3.61472
3.41278
3.54601
3.80278
4.0713
4.281
4.41105
4.45122
4.41559
4.31874
4.18429
4.01943
3.85394
3.73657
3.71765
3.84787
4.13415
4.49384
4.77053
4.88136
4.80544
4.5764
4.23615
3.82254
3.3676
2.89186
2.40541
1.8849
1.36986
0.932345
3.08707
2.86607
2.98163
3.23581
3.52034
3.76192
3.93598
4.02419
4.04157
3.9999
3.92202
3.81383
3.70643
3.65226
3.7018
3.90941
4.24753
4.60009
4.82511
4.87161
4.7467
4.49388
4.15092
3.74884
3.31591
2.87229
2.42014
1.93732
1.45363
1.02638
2.63918
2.38783
2.47524
2.7142
3.00156
3.26242
3.46762
3.59441
3.65607
3.66556
3.64224
3.59034
3.54473
3.55646
3.67691
3.96016
4.33686
4.67026
4.84322
4.8323
4.67058
4.40385
4.06468
3.67736
3.26834
2.84995
2.41766
1.96756
1.515
1.10393
2.27447
1.9881
2.03836
2.2502
2.52801
2.79677
3.02072
3.17897
3.27755
3.32877
3.35399
3.3561
3.37398
3.45139
3.64371
3.99614
4.39509
4.69881
4.82208
4.76499
4.57857
4.30842
3.98045
3.61216
3.22696
2.82304
2.40524
1.97835
1.55452
1.16353
1.99101
1.67727
1.68205
1.85409
2.10902
2.3741
2.60724
2.78847
2.91675
3.00366
3.06788
3.11879
3.19768
3.34118
3.60306
4.01305
4.41688
4.68726
4.76339
4.67296
4.47486
4.21176
3.90306
3.56056
3.18927
2.79206
2.38462
1.97402
1.57493
1.20549
1.80998
1.4751
1.42057
1.53954
1.75578
2.00346
2.2359
2.42996
2.58144
2.69776
2.79409
2.88653
3.02123
3.2303
3.55614
4.01059
4.40398
4.63486
4.67255
4.56336
4.36711
4.12163
3.84225
3.51894
3.15222
2.75862
2.35779
1.96009
1.57847
1.23109
1.74579
1.40884
1.27849
1.32704
1.48451
1.6971
1.91621
2.11241
2.27819
2.41685
2.54087
2.66757
2.85197
3.12322
3.50522
3.98491
4.35632
4.55175
4.56223
4.44931
4.26901
4.05698
3.79916
3.48303
3.11725
2.72412
2.32673
1.93859
1.57127
1.24295
1.80035
1.47141
1.28658
1.24172
1.31753
1.47276
1.66013
1.84578
2.01559
2.16887
2.31564
2.47312
2.6992
3.02662
3.45581
3.94498
4.28907
4.45477
4.45413
4.35388
4.20934
4.01743
3.76889
3.45403
3.08594
2.69053
2.2937
1.91196
1.55636
1.24283
1.97668
1.6547
1.42887
1.30188
1.27938
1.35465
1.48521
1.6425
1.8039
1.96265
2.1268
2.31183
2.57713
2.95113
3.42008
3.90769
4.2268
4.37435
4.38426
4.32084
4.19011
4.00442
3.75456
3.43593
3.06137
2.66081
2.26156
1.88306
1.53637
1.23613
2.31054
1.98022
1.71765
1.51744
1.39382
1.35837
1.41364
1.51998
1.6565
1.81038
1.98624
2.19897
2.50726
2.91579
3.41885
3.90863
4.21646
4.36762
4.41443
4.36552
4.23483
4.05651
3.78162
3.43663
3.04885
2.63956
2.23431
1.8555
1.51438
1.22482
2.81223
2.45344
2.14962
1.8845
1.66731
1.52244
1.46891
1.49798
1.59397
1.73177
1.91637
2.1583
2.50364
2.96528
3.50742
4.00795
4.3405
4.51762
4.57646
4.51686
4.3972
4.20334
3.89913
3.5063
3.0721
2.63451
2.21767
1.83374
1.49409
1.2118
3.4855
3.08341
2.72998
2.40289
2.1037
1.85477
1.68896
1.62204
1.6514
1.76206
1.95659
2.23511
2.6441
3.17631
3.79381
4.33942
4.7118
4.90987
4.95284
4.8787
4.75869
4.50811
4.14488
3.69394
3.19274
2.68867
2.22784
1.82477
1.48057
1.20098
4.35915
3.90203
3.49087
3.10155
2.73025
2.39211
2.12232
1.95638
1.91028
1.98517
2.19132
2.52527
3.03188
3.68518
4.43986
5.083
5.51564
5.71727
5.73133
5.65242
5.45714
5.0944
4.61585
4.06372
3.4725
2.8818
2.33066
1.86318
1.4867
1.19797
5.50682
4.98904
4.51794
4.07007
3.63909
3.23361
2.88447
2.6367
2.52801
2.57692
2.81833
3.25282
3.91955
4.78134
5.7796
6.58913
7.11632
7.2954
7.29708
7.16338
6.77513
6.19957
5.51133
4.77334
4.02462
3.29745
2.61806
2.03787
1.57266
1.23381
7.09369
6.52305
6.00457
5.51704
5.05373
4.62013
4.24257
3.96897
3.85212
3.93715
4.28621
4.9188
5.87014
7.07701
8.48382
9.53644
10.1949
10.3626
10.3536
9.95723
9.22873
8.279
7.22735
6.16086
5.12663
4.15165
3.25412
2.47435
1.8438
1.3886
9.48333
8.8933
8.36643
7.88845
7.45444
7.07273
6.76997
6.59677
6.61252
6.89584
7.51939
8.5342
9.96935
11.7126
13.716
15.0339
15.839
16.0635
15.7796
14.9628
13.6985
12.1548
10.5188
8.91428
7.38718
5.96951
4.66877
3.5135
2.54882
1.82927
13.4292
12.9134
12.444
12.067
11.7765
11.5928
11.5438
11.692
12.1005
12.843
13.9956
15.635
17.7761
20.2224
22.8792
24.3306
25.1284
25.1891
24.4946
23.155
21.259
18.9856
16.5987
14.256
11.9965
9.87189
7.88376
6.04482
4.41304
3.12349
20.1557
19.8698
19.6549
19.5061
19.5077
19.718
20.1533
20.8643
21.8934
23.304
25.153
27.5302
30.4238
33.4658
36.4394
37.2028
37.0841
36.262
35.0514
33.4178
31.4309
29.1427
26.4909
23.6016
20.6219
17.6895
14.8154
11.971
9.23416
6.87315
30.7307
30.6461
30.8877
31.3641
31.9325
32.6557
33.6091
34.8469
36.3933
38.3096
40.6307
43.4111
46.559
49.348
51.0485
49.1586
47.5546
45.7616
44.1972
42.6036
41.0251
39.3967
37.6384
35.6391
33.2936
30.4718
27.2242
23.6671
19.8748
16.2389
42.1635
42.399
43.349
44.6267
45.9812
47.2815
48.5249
49.7945
51.2328
52.9407
54.9459
57.1286
59.3298
60.1542
59.38
54.7609
51.7205
49.1122
47.3097
45.986
45.1708
44.72
44.4549
44.1394
43.5065
42.4154
40.7334
38.4743
35.6418
32.531
43.6758
44.7631
46.5498
48.5362
50.3449
51.778
52.8508
53.7653
54.7447
55.9343
57.25
58.361
58.9593
58.0029
55.0207
49.0198
45.3521
42.4877
40.6836
39.5592
39.192
39.5096
40.3065
41.2951
42.2153
42.89
43.2064
43.1388
42.7539
42.2064
16.6083
20.6156
21.9444
22.4847
22.6773
22.4776
21.9067
21.0401
19.9384
18.6651
17.2458
15.7482
14.1836
12.6658
11.2509
10.1199
9.57727
10.7314
13.6812
16.4774
17.4185
16.4602
14.1716
11.1973
7.92628
4.70772
2.09443
0.151411
0.128908
0.532316
9.24356
10.0979
10.3895
10.4664
10.4577
10.3212
10.0373
9.62315
9.10907
8.51809
7.87794
7.20073
6.52544
5.8621
5.28419
4.82272
4.69539
5.4666
7.18364
8.73242
9.28361
8.90504
7.95701
6.73359
5.34859
3.8108
2.19975
0.6695
0.232396
0.252782
8.41672
8.76899
8.8829
8.89976
8.83111
8.67395
8.42119
8.07324
7.64519
7.15119
6.61387
6.0456
5.48159
4.94198