/*--------------------------------*- C++ -*----------------------------------*\
| =========                 |                                                 |
| \\      /  F ield         | OpenFOAM: The Open Source CFD Toolbox           |
|  \\    /   O peration     | Version:  5.0                                   |
|   \\  /    A nd           | Web:      www.OpenFOAM.org                      |
|    \\/     M anipulation  |                                                 |
\*---------------------------------------------------------------------------*/
FoamFile
{
    version     2.0;
    format      ascii;
    class       volScalarField;
    location    "1600/air";
    object      k;
}
// * * * * * * * * * * * * * * * * * * * * * * * * * * * * * * * * * * * * * //

dimensions      [0 2 -2 0 0 0 0];

internalField   nonuniform List<scalar> 
243000
(
0.0725959
0.081441
0.0844535
0.0852871
0.0843833
0.0822278
0.0791451
0.0754303
0.0713163
0.0670392
0.0627358
0.0585051
0.0543608
0.0504072
0.0467094
0.0434261
0.040688
0.0387128
0.0382268
0.0372315
0.0365367
0.0356212
0.0339881
0.0314502
0.0290069
0.0259585
0.0242541
0.0226484
0.0191319
0.019263
0.108933
0.122242
0.125332
0.124937
0.122327
0.118232
0.113188
0.10759
0.101697
0.0957302
0.0897871
0.0839697
0.0783097
0.0729782
0.0680842
0.0638193
0.0603305
0.0579508
0.0567044
0.0563219
0.0561236
0.0554639
0.0537227
0.0506061
0.0461803
0.0410005
0.0354104
0.0294353
0.023995
0.0225515
0.126245
0.140491
0.144849
0.144811
0.14209
0.137606
0.131989
0.125687
0.119004
0.112213
0.10543
0.0987946
0.092372
0.0863799
0.0809562
0.076331
0.0726636
0.0703013
0.0691612
0.0689129
0.0688244
0.0681674
0.0662679
0.0627805
0.0577964
0.0516199
0.0446595
0.0368965
0.0298774
0.0252973
0.133744
0.14907
0.154854
0.15597
0.15401
0.150013
0.144629
0.138342
0.1315
0.124428
0.117289
0.110275
0.103484
0.0971857
0.0915545
0.0868627
0.0832775
0.0811227
0.0801918
0.0800386
0.0799203
0.0791273
0.0770071
0.0732029
0.0677787
0.0609714
0.0531931
0.0443326
0.0360981
0.0300235
0.134275
0.149684
0.157765
0.160763
0.160114
0.157144
0.152501
0.146701
0.140142
0.133188
0.126057
0.118994
0.112139
0.105811
0.100218
0.0956761
0.092352
0.0905141
0.0898192
0.0897309
0.0895161
0.0885216
0.0861567
0.0820874
0.0763528
0.0691545
0.060889
0.0514194
0.0422333
0.0350107
0.130335
0.14584
0.155773
0.160685
0.161805
0.160181
0.156629
0.151628
0.145658
0.139114
0.132261
0.125397
0.118708
0.112564
0.107189
0.102957
0.100015
0.0985548
0.0981002
0.0980559
0.0977171
0.0964966
0.0938865
0.0895953
0.0836513
0.0762352
0.0677048
0.0579363
0.0480643
0.03995
0.122805
0.138913
0.150457
0.157248
0.160167
0.160183
0.157826
0.153755
0.148604
0.142692
0.136325
0.12985
0.123499
0.117697
0.112677
0.108869
0.106387
0.105329
0.105112
0.105102
0.104634
0.103191
0.100351
0.0958764
0.0897978
0.0822823
0.0736408
0.0637729
0.0534851
0.0446734
0.112651
0.129649
0.142664
0.15125
0.155988
0.157613
0.156679
0.15384
0.149545
0.14432
0.138595
0.132654
0.126771
0.121422
0.116861
0.113556
0.111576
0.110926
0.110937
0.110962
0.110376
0.108733
0.105691
0.10107
0.0949117
0.0873772
0.078733
0.0689256
0.0584195
0.0491131
0.10135
0.118988
0.133269
0.143449
0.149911
0.153122
0.153644
0.152052
0.148835
0.144519
0.139419
0.13407
0.128747
0.123931
0.119898
0.117143
0.11568
0.11543
0.115657
0.115722
0.115042
0.113233
0.110027
0.1053
0.0991082
0.0916127
0.0830657
0.0733359
0.062806
0.0532213
0.0908225
0.108473
0.123394
0.134599
0.142534
0.147231
0.149166
0.148866
0.146761
0.143372
0.139101
0.13441
0.12963
0.125396
0.121928
0.119742
0.118793
0.118918
0.119349
0.119466
0.118723
0.116792
0.113468
0.108677
0.102495
0.0951059
0.086641
0.077016
0.0666485
0.0569628
0.0816315
0.0982132
0.11361
0.125746
0.134607
0.140439
0.143658
0.144601
0.143629
0.141209
0.137757
0.133766
0.129656
0.125979
0.123078
0.121453
0.120998
0.121468
0.122091
0.122272
0.121503
0.119497
0.116105
0.111298
0.105186
0.0978845
0.0895113
0.0800183
0.0699493
0.0602922
0.0748376
0.0884428
0.103803
0.11681
0.126682
0.133443
0.137528
0.139565
0.139682
0.138229
0.135618
0.13235
0.128876
0.125795
0.123455
0.122366
0.122369
0.123154
0.123958
0.124216
0.123456
0.121427
0.118024
0.113264
0.107222
0.10002
0.0917498
0.0824014
0.0727346
0.063215
0.0717754
0.0799386
0.0940931
0.107688
0.118595
0.12639
0.13139
0.134165
0.135163
0.134624
0.13284
0.130302
0.127463
0.124962
0.123159
0.122567
0.122976
0.124048
0.125023
0.125368
0.124653
0.122654
0.119311
0.114616
0.108665
0.101577
0.0934221
0.0843173
0.0750701
0.0657463
0.0737474
0.0743287
0.085076
0.0984509
0.11025
0.11915
0.125164
0.12877
0.130439
0.130603
0.12958
0.127746
0.125532
0.12358
0.122279
0.122131
0.122894
0.124213
0.125356
0.125799
0.125154
0.123237
0.119975
0.115387
0.109564
0.102608
0.0945922
0.0859342
0.0770475
0.0679277
0.0811072
0.0737779
0.0782434
0.0895916
0.10171
0.111648
0.118755
0.123288
0.125707
0.126471
0.12601
0.124806
0.123178
0.121745
0.120899
0.121137
0.122195
0.123723
0.125024
0.125577
0.125016
0.123174
0.120021
0.115585
0.109945
0.103161
0.0953866
0.0872266
0.0786954
0.0697836
0.0928278
0.0804016
0.076133
0.0824349
0.0933904
0.103937
0.112108
0.117648
0.1209
0.122325
0.122388
0.121623
0.120502
0.119538
0.119098
0.119658
0.120955
0.122654
0.124097
0.124775
0.124333
0.122635
0.119612
0.115329
0.10986
0.103279
0.09598
0.0882478
0.0800447
0.0713356
0.107747
0.0933234
0.081567
0.0794398
0.086441
0.0963778
0.105278
0.111817
0.11597
0.118123
0.118756
0.118401
0.117623
0.117045
0.11695
0.117768
0.119249
0.121082
0.122648
0.123463
0.123165
0.121638
0.118807
0.114708
0.109433
0.103161
0.0963518
0.0890172
0.0811166
0.0725979
0.123286
0.109183
0.0940387
0.0834493
0.0829705
0.0899244
0.0985743
0.105854
0.110901
0.113832
0.115081
0.115188
0.114709
0.114369
0.114533
0.115542
0.117153
0.119083
0.120755
0.12171
0.121577
0.120245
0.11765
0.113771
0.108728
0.102921
0.0965366
0.0895591
0.0819307
0.0735828
0.139243
0.126145
0.110531
0.0948366
0.0856006
0.0862968
0.0927562
0.100012
0.105749
0.109448
0.111347
0.111951
0.11182
0.111637
0.111937
0.113063
0.11475
0.11674
0.118498
0.119591
0.119639
0.118524
0.116184
0.112576
0.107933
0.102564
0.096552
0.0898967
0.0825071
0.0743049
0.155634
0.143071
0.128094
0.11088
0.0951999
0.0876157
0.0891493
0.094861
0.100712
0.105021
0.107555
0.108678
0.10893
0.108958
0.109299
0.110429
0.11213
0.114139
0.11596
0.117182
0.117423
0.116543
0.114477
0.111249
0.107071
0.102113
0.0964423
0.090064
0.082874
0.074784
0.172319
0.15993
0.145651
0.128581
0.109913
0.0950411
0.0893286
0.0913566
0.0961983
0.1007
0.103749
0.105376
0.106027
0.106305
0.106738
0.107784
0.109402
0.111383
0.113236
0.114571
0.115006
0.114374
0.112663
0.109903
0.106168
0.101597
0.0962413
0.0900956
0.0830657
0.0750503
0.189154
0.177109
0.16315
0.146457
0.126966
0.107554
0.0944444
0.0906274
0.0928663
0.0967712
0.10004
0.102082
0.10312
0.103673
0.104238
0.105259
0.106784
0.108665
0.110503
0.111925
0.112571
0.112241
0.110903
0.108573
0.105262
0.10106
0.0959935
0.0900471
0.0831303
0.0751416
0.206106
0.194189
0.180341
0.163906
0.144414
0.122933
0.104142
0.0936125
0.0914965
0.0936818
0.0966368
0.0988912
0.100255
0.101081
0.101808
0.102853
0.104322
0.10612
0.107937
0.109428
0.110262
0.110209
0.109221
0.107295
0.104397
0.100557
0.0957661
0.0899847
0.0831288
0.0751115
0.223041
0.210943
0.197019
0.180688
0.16138
0.13922
0.11699
0.100398
0.0928209
0.0919984
0.0938827
0.0959944
0.0975457
0.0986103
0.0995157
0.100626
0.102072
0.103806
0.105597
0.10714
0.108135
0.108342
0.107679
0.106134
0.10364
0.100163
0.0956397
0.0900014
0.0831537
0.0750437
0.239021
0.226861
0.212938
0.196705
0.177625
0.155453
0.131575
0.110504
0.0973102
0.0924296
0.0923311
0.0937973
0.0953058
0.0965319
0.0976219
0.0988359
0.100295
0.101985
0.103739
0.105307
0.106424
0.106852
0.106488
0.105292
0.103157
0.100011
0.0957592
0.0902647
0.0833852
0.0750709
0.254707
0.242502
0.228602
0.212518
0.193743
0.171896
0.147531
0.123715
0.105654
0.0961437
0.093179
0.0933618
0.094538
0.0958419
0.0971425
0.0985255
0.100045
0.101702
0.103382
0.104898
0.10603
0.106573
0.106409
0.105452
0.103601
0.100745
0.0967203
0.0913021
0.0842422
0.0755104
0.271577
0.259537
0.245846
0.230087
0.21183
0.190692
0.166754
0.141867
0.120383
0.106391
0.0999785
0.0983429
0.0989164
0.100314
0.101978
0.103667
0.105283
0.106846
0.108293
0.109508
0.110347
0.110673
0.110382
0.109371
0.107525
0.104693
0.100653
0.095041
0.0875004
0.0778485
0.293719
0.282269
0.269295
0.254571
0.237841
0.218741
0.197038
0.173571
0.151333
0.134635
0.125403
0.122181
0.122397
0.12429
0.126683
0.12883
0.130399
0.131463
0.132023
0.132119
0.131726
0.130846
0.129444
0.127435
0.124635
0.120868
0.115896
0.109211
0.100167
0.0882117
0.338165
0.328752
0.318873
0.308466
0.297278
0.28475
0.270202
0.253694
0.23644
0.222176
0.213724
0.210981
0.211869
0.214906
0.218154
0.220448
0.221197
0.22077
0.219271
0.216879
0.213772
0.210151
0.206095
0.201503
0.19576
0.188838
0.181023
0.171405
0.15906
0.143233
0.504356
0.502517
0.503138
0.503569
0.503179
0.501424
0.497655
0.492061
0.483259
0.47473
0.46879
0.465677
0.46444
0.465777
0.467421
0.468652
0.468291
0.467945
0.46737
0.466976
0.466626
0.466508
0.466444
0.466158
0.462434
0.456295
0.450948
0.443041
0.432085
0.417757
0.106578
0.123803
0.130265
0.13243
0.131543
0.128479
0.123901
0.118337
0.112138
0.105618
0.0989423
0.0923357
0.0858875
0.0798677
0.074405
0.069812
0.066276
0.0642115
0.0636484
0.0639397
0.0637154
0.0617979
0.0575304
0.0508414
0.0422763
0.0326702
0.0256716
0.022842
0.0212038
0.0201894
0.165699
0.19009
0.195571
0.193317
0.186815
0.177989
0.167981
0.1575
0.146977
0.136717
0.126832
0.117507
0.108745
0.100851
0.0939456
0.0883898
0.0843171
0.0824505
0.0828167
0.0846112
0.0861147
0.0857549
0.082234
0.0751002
0.0649605
0.0528346
0.0405624
0.0313907
0.0332299
0.0274483
0.195119
0.223036
0.232339
0.231988
0.226381
0.217661
0.207143
0.195671
0.183811
0.17201
0.160476
0.1495
0.139144
0.12986
0.121871
0.115651
0.111313
0.109587
0.110217
0.11221
0.113758
0.113245
0.109174
0.100944
0.0890387
0.0744315
0.0587761
0.0435045
0.0380969
0.0365986
0.206075
0.235819
0.248289
0.250636
0.247461
0.240666
0.231461
0.220743
0.209174
0.197294
0.185421
0.173966
0.163084
0.153362
0.145156
0.139018
0.135024
0.133743
0.134578
0.136426
0.137557
0.136482
0.131752
0.122689
0.109684
0.0935932
0.0759197
0.0571925
0.0449366
0.0387095
0.20483
0.23278
0.248499
0.255438
0.255793
0.251837
0.24484
0.235782
0.225399
0.214296
0.202914
0.191755
0.181088
0.171625
0.163831
0.158312
0.15508
0.154446
0.155486
0.157051
0.157603
0.155832
0.150457
0.140824
0.127228
0.1104
0.0917013
0.0712497
0.0546546
0.0440541
0.197033
0.222736
0.240859
0.251067
0.255067
0.254352
0.249992
0.243098
0.234438
0.224656
0.214332
0.204021
0.194102
0.185399
0.178467
0.17395
0.17176
0.17188
0.173115
0.174348
0.174275
0.171778
0.16581
0.155802
0.141975
0.124935
0.105886
0.0848024
0.0658307
0.0518631
0.183786
0.207041
0.226727
0.240109
0.247721
0.250417
0.24913
0.244543
0.237731
0.22963
0.220813
0.211754
0.202965
0.195391
0.18964
0.186392
0.185423
0.186325
0.187756
0.188665
0.187972
0.184785
0.178292
0.168043
0.154228
0.137347
0.118416
0.0973837
0.077359
0.0610507
0.165441
0.186497
0.207919
0.224423
0.235581
0.241375
0.24286
0.240959
0.236595
0.230525
0.223258
0.215746
0.208355
0.202176
0.197822
0.196028
0.196351
0.198037
0.199665
0.200293
0.199038
0.195239
0.188305
0.177923
0.164285
0.147818
0.129338
0.108788
0.0885803
0.0707639
0.143138
0.163006
0.186153
0.20566
0.220096
0.228581
0.232778
0.23363
0.231745
0.227847
0.222596
0.216727
0.210852
0.206228
0.203407
0.203176
0.204776
0.207229
0.209066
0.209477
0.207753
0.203447
0.196179
0.185772
0.172439
0.156561
0.138774
0.119008
0.0991855
0.0804262
0.124817
0.141723
0.164591
0.185941
0.202699
0.213544
0.220417
0.223915
0.224525
0.222822
0.219476
0.215299
0.211061
0.207984
0.206736
0.208083
0.210911
0.214091
0.216149
0.216423
0.214346
0.209667
0.202192
0.191881
0.178975
0.163834
0.1468
0.12786
0.108726
0.089595
0.110834
0.1234
0.144489
0.166766
0.18515
0.197705
0.206922
0.212735
0.215585
0.215988
0.214472
0.211947
0.209297
0.207799
0.2081
0.210944
0.214947
0.218798
0.221094
0.221314
0.219018
0.21412
0.206601
0.196539
0.184202
0.169722
0.153438
0.135458
0.117153
0.0980858
0.101193
0.108294
0.126262
0.148281
0.167902
0.182408
0.193398
0.200863
0.205589
0.207761
0.207959
0.207043
0.205951
0.205992
0.207747
0.21196
0.21701
0.221521
0.224071
0.224312
0.221943
0.217
0.209655
0.199964
0.188131
0.174335
0.158875
0.142129
0.124528
0.105873
0.0961581
0.0970344
0.110535
0.130773
0.150945
0.167344
0.180031
0.189113
0.195109
0.198711
0.200398
0.200971
0.201355
0.202792
0.205894
0.211315
0.217276
0.222373
0.225247
0.225561
0.223277
0.218537
0.211434
0.20217
0.190926
0.177858
0.163322
0.147781
0.130862
0.112666
0.0979582
0.0910444
0.0982247
0.114803
0.134427
0.152463
0.166841
0.17737
0.184673
0.189381
0.192257
0.194099
0.195777
0.198454
0.202747
0.209186
0.215893
0.221512
0.224755
0.225216
0.223019
0.218411
0.211737
0.203205
0.192703
0.180469
0.167138
0.152443
0.136174
0.118451
0.106035
0.0929405
0.0922008
0.10291
0.119649
0.138038
0.153824
0.165642
0.174147
0.180046
0.183966
0.186776
0.18951
0.193221
0.198507
0.205756
0.213048
0.219121
0.222749
0.223486
0.221582
0.217371
0.21112
0.203173
0.1936
0.182476
0.170249
0.156252
0.140532
0.123243
0.120723
0.103044
0.0938998
0.0967651
0.108638
0.124963
0.141173
0.154066
0.163686
0.17068
0.17567
0.179337
0.182842
0.187338
0.193385
0.201221
0.208938
0.215397
0.219406
0.220538
0.219069
0.215432
0.209827
0.202603
0.193935
0.184063
0.172632
0.159276
0.144009
0.127088
0.142304
0.121877
0.105874
0.0988092
0.103211
0.114827
0.129558
0.142931
0.15346
0.161431
0.167396
0.171954
0.17607
0.181058
0.187613
0.195809
0.203795
0.210559
0.214948
0.216577
0.215667
0.212725
0.20803
0.201689
0.194161
0.185254
0.17446
0.161625
0.146697
0.130056
0.170313
0.148507
0.128136
0.11218
0.105845
0.110056
0.12054
0.132928
0.143788
0.15249
0.159291
0.164653
0.169433
0.174665
0.181467
0.189803
0.197907
0.204885
0.209654
0.21186
0.211629
0.209534
0.205859
0.200781
0.194322
0.186117
0.175862
0.16342
0.148706
0.132241
0.204211
0.181677
0.158873
0.136605
0.119814
0.113237
0.116382
0.125306
0.135294
0.144187
0.151563
0.157592
0.162962
0.168546
0.175315
0.18358
0.191665
0.198763
0.203919
0.206767
0.207365
0.20633
0.203884
0.200008
0.194402
0.186821
0.176997
0.164806
0.150161
0.133752
0.243175
0.220101
0.195761
0.169623
0.1447
0.126898
0.11986
0.121962
0.129059
0.137097
0.144553
0.151003
0.156849
0.162801
0.169704
0.177717
0.185668
0.192809
0.198399
0.202003
0.203635
0.203646
0.202322
0.199533
0.194643
0.1876
0.178074
0.165968
0.151221
0.134719
0.286159
0.262606
0.237017
0.208317
0.177941
0.150667
0.132466
0.125055
0.126498
0.132137
0.138838
0.145275
0.151437
0.15774
0.164851
0.172874
0.180842
0.188079
0.193996
0.198248
0.200763
0.201772
0.20147
0.199546
0.195434
0.188807
0.179393
0.167157
0.152097
0.135317
0.332073
0.3081
0.281337
0.250619
0.216541
0.182387
0.15414
0.136273
0.129566
0.13056
0.135334
0.141137
0.147358
0.153966
0.161397
0.169608
0.177718
0.185135
0.191341
0.196074
0.199308
0.201191
0.201836
0.200906
0.197536
0.191155
0.181482
0.168779
0.153104
0.135753
0.380025
0.355672
0.327853
0.29543
0.258677
0.219815
0.183788
0.156149
0.140103
0.134514
0.135504
0.139976
0.145932
0.152825
0.160755
0.169406
0.177905
0.185537
0.191938
0.196955
0.200696
0.203238
0.204573
0.20435
0.201613
0.195505
0.185428
0.171635
0.154799
0.136406
0.429748
0.405216
0.376667
0.343036
0.304521
0.262665
0.221255
0.185595
0.160521
0.147327
0.143287
0.145096
0.150395
0.157683
0.166501
0.175993
0.18498
0.192883
0.199385
0.204474
0.208294
0.210931
0.212277
0.212148
0.209536
0.203431
0.192736
0.177555
0.158453
0.138088
0.482741
0.458711
0.430316
0.396602
0.357761
0.314918
0.270761
0.229743
0.197435
0.176966
0.167405
0.165938
0.170375
0.178467
0.189188
0.200271
0.209882
0.217875
0.223956
0.228172
0.230756
0.231953
0.231893
0.23034
0.226479
0.219174
0.207099
0.1895
0.167212
0.142967
0.545616
0.52369
0.4975
0.466236
0.430062
0.389712
0.346975
0.305278
0.270112
0.245616
0.232513
0.229335
0.234593
0.245691
0.260506
0.274596
0.28492
0.291827
0.295268
0.295633
0.293396
0.289264
0.28373
0.276822
0.267926
0.255928
0.239257
0.216713
0.187624
0.156203
0.638244
0.621724
0.601825
0.577797
0.549907
0.51861
0.484757
0.451058
0.421869
0.401547
0.391811
0.393001
0.404459
0.423093
0.445045
0.463394
0.473991
0.477895
0.475118
0.466477
0.453194
0.436817
0.418451
0.398459
0.376597
0.352031
0.323062
0.287753
0.244508
0.196094
0.807879
0.800281
0.790902
0.779034
0.765784
0.75118
0.734885
0.717708
0.702566
0.693883
0.693884
0.704952
0.725029
0.751063
0.777451
0.79741
0.807302
0.808395
0.799525
0.782415
0.758329
0.729312
0.696813
0.661135
0.621931
0.578866
0.53033
0.473362
0.405149
0.327569
1.04922
1.04812
1.05477
1.06251
1.07124
1.07671
1.07585
1.07116
1.06394
1.06139
1.06629
1.07888
1.09572
1.11496
1.13031
1.13966
1.14271
1.13958
1.12923
1.11311
1.09211
1.06754
1.03992
1.009
0.972862
0.930852
0.880925
0.819758
0.744139
0.655522
1.14863
1.1532
1.17496
1.1974
1.21168
1.21598
1.21191
1.2042
1.19664
1.19482
1.19831
1.20355
1.2064
1.20777
1.20137
1.19171
1.18361
1.1746
1.16511
1.15578
1.14764
1.14092
1.13542
1.1305
1.12395
1.11526
1.10206
1.08347
1.05922
1.02758
0.141789
0.162967
0.168915
0.170989
0.169673
0.165697
0.159848
0.152776
0.144907
0.13662
0.128112
0.119674
0.111378
0.103618
0.0965685
0.0907414
0.0865474
0.0853006
0.0874927
0.0911839
0.0930342
0.0909947
0.0843986
0.0735221
0.0593359
0.0431654
0.027066
0.0220502
0.0211778
0.0218555
0.22499
0.256296
0.264287
0.261946
0.253783
0.242461
0.229604
0.216116
0.202471
0.189009
0.17582
0.163137
0.150903
0.1396
0.129442
0.121097
0.115248
0.114543
0.119575
0.127699
0.134122
0.135599
0.13018
0.117674
0.0993552
0.0771578
0.0540914
0.0368176
0.0341674
0.0303478
0.270124
0.30544
0.318063
0.318329
0.3113
0.299986
0.286282
0.271316
0.255713
0.239954
0.224273
0.209034
0.194299
0.18074
0.168778
0.159213
0.152793
0.152335
0.157992
0.166865
0.173931
0.175807
0.170058
0.156139
0.135209
0.108949
0.0805694
0.0543913
0.0428854
0.0405229
0.295221
0.329567
0.344378
0.347885
0.343459
0.334095
0.321576
0.307151
0.291542
0.275335
0.258913
0.242766
0.227111
0.212785
0.200434
0.190904
0.184871
0.184833
0.190398
0.198737
0.205154
0.20656
0.2004
0.185941
0.163989
0.135981
0.10484
0.0733293
0.0527028
0.0441835
0.304754
0.334356
0.351963
0.359343
0.358406
0.352032
0.341788
0.329043
0.314545
0.299012
0.282966
0.267
0.251495
0.237452
0.225688
0.217044
0.212009
0.212487
0.217623
0.224808
0.22998
0.23047
0.223822
0.209218
0.187195
0.15888
0.126748
0.0926261
0.0657507
0.0510986
0.302987
0.32742
0.346267
0.357121
0.360492
0.357721
0.350452
0.340222
0.327578
0.313517
0.298665
0.283683
0.269135
0.256174
0.245726
0.238583
0.234943
0.235972
0.2405
0.24625
0.249886
0.249193
0.241971
0.227421
0.205856
0.178112
0.146175
0.111295
0.0807822
0.0610452
0.294899
0.31366
0.331885
0.345233
0.352528
0.354033
0.350777
0.342953
0.332504
0.320533
0.307548
0.294167
0.281207
0.269975
0.261404
0.256235
0.254253
0.255831
0.259672
0.263878
0.265881
0.263846
0.255983
0.24157
0.22076
0.194119
0.163156
0.128779
0.0965561
0.0729872
0.280396
0.29287
0.310178
0.325748
0.336849
0.342449
0.343003
0.338813
0.331586
0.321892
0.310776
0.299447
0.28858
0.279601
0.27335
0.270521
0.27033
0.272442
0.275578
0.278262
0.278643
0.275223
0.266689
0.252442
0.232555
0.207331
0.177927
0.14469
0.112255
0.0858905
0.258005
0.266255
0.282995
0.30065
0.315353
0.324934
0.329257
0.32885
0.324789
0.317996
0.30957
0.300541
0.291999
0.285647
0.28205
0.281838
0.283431
0.286066
0.288537
0.289821
0.288635
0.283904
0.274737
0.260697
0.241816
0.21817
0.190278
0.158669
0.126929
0.0988653
0.230271
0.235748
0.25242
0.272011
0.289992
0.303213
0.311175
0.314317
0.313639
0.309943
0.30438
0.298047
0.292239
0.288647
0.287907
0.290444
0.293773
0.296906
0.298788
0.298845
0.296224
0.290341
0.28065
0.266908
0.248932
0.226642
0.200482
0.170887
0.140274
0.111343
0.205029
0.206776
0.22219
0.242797
0.262965
0.2791
0.290246
0.296625
0.299143
0.298607
0.296025
0.292576
0.289649
0.289007
0.291259
0.296517
0.301528
0.305124
0.306534
0.305524
0.301697
0.294894
0.284872
0.27141
0.25417
0.23322
0.208868
0.18155
0.152134
0.123178
0.183889
0.180535
0.193528
0.214104
0.235744
0.254212
0.268029
0.277062
0.282471
0.284827
0.285202
0.28469
0.28477
0.287087
0.292332
0.300198
0.306825
0.310868
0.311928
0.310043
0.305291
0.297886
0.287718
0.27446
0.257974
0.23836
0.216056
0.190452
0.162315
0.133757
0.167667
0.158359
0.167681
0.186931
0.209156
0.229376
0.245418
0.256933
0.264751
0.26957
0.272625
0.274942
0.277936
0.283182
0.29134
0.301631
0.309733
0.31428
0.315097
0.312545
0.307262
0.299475
0.289232
0.276357
0.260721
0.242648
0.222064
0.197788
0.170826
0.142875
0.157621
0.142328
0.146382
0.162521
0.184039
0.205254
0.223084
0.236681
0.246643
0.253708
0.259006
0.263851
0.269554
0.277592
0.288478
0.300955
0.310371
0.315473
0.316157
0.313216
0.307375
0.299404
0.289503
0.277355
0.262795
0.24631
0.226811
0.20368
0.177743
0.150488
0.157049
0.135767
0.132222
0.142893
0.161716
0.182665
0.201613
0.216879
0.228686
0.237719
0.245053
0.251958
0.260006
0.270621
0.283939
0.29832
0.308895
0.314593
0.315312
0.312298
0.306395
0.29857
0.289167
0.277844
0.264762
0.249302
0.230556
0.208295
0.183189
0.156624
0.164584
0.140421
0.12855
0.130962
0.14434
0.162949
0.181803
0.198104
0.211373
0.222064
0.231166
0.239816
0.249723
0.262562
0.277936
0.293918
0.305513
0.311859
0.312838
0.309992
0.304512
0.297226
0.288641
0.278529
0.26659
0.251696
0.233462
0.211799
0.18731
0.161367
0.181355
0.155554
0.137313
0.129885
0.135027
0.148277
0.164969
0.181151
0.195252
0.207191
0.217743
0.227898
0.239186
0.253759
0.270757
0.288025
0.300532
0.307576
0.309062
0.3067
0.301979
0.295737
0.288377
0.279455
0.26811
0.253628
0.235679
0.21435
0.19026
0.164833
0.209259
0.1822
0.159391
0.143114
0.136936
0.141727
0.153189
0.167255
0.181081
0.193624
0.205213
0.216564
0.229052
0.244683
0.262838
0.281079
0.29442
0.302231
0.304504
0.303002
0.299487
0.29477
0.288524
0.280353
0.269481
0.255241
0.237365
0.216119
0.192206
0.167161
0.247199
0.21906
0.193077
0.169927
0.153068
0.146058
0.148997
0.158216
0.169968
0.182077
0.194105
0.20625
0.219787
0.236059
0.254901
0.273796
0.287957
0.296643
0.300005
0.299934
0.297977
0.294381
0.289051
0.281518
0.270945
0.256738
0.238704
0.217306
0.193343
0.168518
0.293354
0.26404
0.235508
0.207388
0.181915
0.163345
0.154931
0.155979
0.16347
0.173568
0.185186
0.197683
0.212042
0.228922
0.248198
0.267392
0.282474
0.292296
0.29707
0.298398
0.297641
0.295239
0.290857
0.283691
0.272999
0.258473
0.239985
0.21816
0.193902
0.169106
0.345759
0.315023
0.284071
0.252093
0.2203
0.192113
0.172209
0.162935
0.162878
0.169503
0.179744
0.19197
0.20688
0.224441
0.244337
0.264092
0.280078
0.290923
0.296991
0.299391
0.299736
0.298224
0.294483
0.287613
0.27651
0.26106
0.241655
0.219036
0.194188
0.16916
0.402714
0.370385
0.337046
0.301823
0.265358
0.230048
0.200367
0.180492
0.171658
0.172093
0.179261
0.190732
0.205984
0.224329
0.245662
0.26646
0.283438
0.295148
0.302121
0.30549
0.306465
0.30527
0.301559
0.294534
0.282881
0.265984
0.244752
0.220624
0.194672
0.169065
0.463329
0.429511
0.394082
0.356249
0.316419
0.276251
0.239405
0.210441
0.192566
0.185948
0.188607
0.198427
0.214107
0.233893
0.257273
0.279821
0.297859
0.310272
0.317888
0.321563
0.322283
0.320294
0.315471
0.307206
0.29434
0.275748
0.251882
0.224676
0.196442
0.169406
0.528479
0.493845
0.457247
0.418
0.376417
0.333713
0.292715
0.257514
0.232243
0.21898
0.216783
0.224656
0.240969
0.263442
0.290682
0.316051
0.335087
0.347998
0.355357
0.357913
0.356514
0.351595
0.34348
0.331902
0.315933
0.294523
0.267109
0.235815
0.202763
0.172088
0.6028
0.569109
0.533405
0.495061
0.454337
0.412224
0.37093
0.333867
0.305291
0.28833
0.28339
0.291006
0.309868
0.337049
0.370681
0.399779
0.419798
0.432013
0.437039
0.435608
0.428466
0.416751
0.40137
0.382659
0.360012
0.332492
0.299281
0.260978
0.220604
0.182921
0.699129
0.669789
0.638558
0.604956
0.569195
0.532277
0.496123
0.463607
0.438548
0.424181
0.421899
0.434023
0.459058
0.493755
0.53479
0.567386
0.587132
0.596529
0.596313
0.586882
0.569703
0.546463
0.518803
0.487746
0.453161
0.414311
0.370055
0.32012
0.265809
0.21386
0.845364
0.824602
0.80203
0.777731
0.751768
0.725494
0.700463
0.678995
0.664013
0.658148
0.664184
0.68447
0.717285
0.758845
0.80377
0.83577
0.852302
0.856909
0.849626
0.831611
0.804476
0.770175
0.730283
0.685956
0.637314
0.583789
0.524158
0.456721
0.38133
0.303981
1.06982
1.061
1.05165
1.04022
1.02712
1.01384
1.00119
0.990802
0.98507
0.986588
0.999056
1.02356
1.05806
1.09701
1.13292
1.1518
1.15821
1.15483
1.14221
1.12166
1.09464
1.06239
1.02524
0.982573
0.933116
0.875536
0.808535
0.729472
0.636234
0.533707
1.31144
1.30918
1.31742
1.32666
1.33128
1.32868
1.32116
1.31217
1.30568
1.30523
1.31405
1.33048
1.35103
1.36721
1.37185
1.35818
1.34403
1.32745
1.31135
1.29514
1.28064
1.26816
1.25689
1.24381
1.2253
1.1984
1.15704
1.09998
1.02509
0.935187
1.34517
1.35627
1.3789
1.40078
1.41401
1.41677
1.40945
1.39776
1.38764
1.38322
1.38442
1.38701
1.38684
1.37911
1.35806
1.32284
1.29547
1.27077
1.25264
1.2404
1.23555
1.23752
1.24555
1.25634
1.26629
1.27262
1.27175
1.2638
1.24657
1.22131
0.175598
0.199969
0.205282
0.205747
0.203427
0.198444
0.191424
0.183026
0.173702
0.163866
0.153693
0.143527
0.133384
0.123793
0.114976
0.107778
0.103292
0.105271
0.114633
0.125437
0.130776
0.128456
0.11884
0.103173
0.0826759
0.0588644
0.0349541
0.023344
0.0211636
0.0223236
0.282202
0.318325
0.325059
0.322168
0.312807
0.299729
0.284827
0.26908
0.25296
0.236782
0.220549
0.20451
0.188513
0.173345
0.159401
0.148053
0.141681
0.147185
0.164818
0.1857
0.199478
0.202089
0.192768
0.172767
0.143978
0.108702
0.0723134
0.0417613
0.0316822
0.0313091
0.343192
0.38247
0.395119
0.395425
0.387441
0.374432
0.358534
0.3409
0.322187
0.302883
0.283188
0.26347
0.243792
0.22523
0.208569
0.195365
0.188484
0.195108
0.214569
0.237331
0.252695
0.256377
0.246932
0.225166
0.192849
0.151823
0.107347
0.0643724
0.0432948
0.040458
0.381684
0.417133
0.433537
0.437253
0.432107
0.421167
0.406373
0.388951
0.369735
0.349363
0.328241
0.306841
0.28551
0.265531
0.248086
0.234723
0.22837
0.235464
0.254438
0.276182
0.2908
0.294329
0.284911
0.263027
0.229952
0.187026
0.138749
0.0885669
0.0561417
0.0454496
0.40329
0.433351
0.451137
0.458048
0.456654
0.448905
0.436371
0.420341
0.401864
0.381727
0.360502
0.338779
0.317169
0.297159
0.280225
0.267821
0.262658
0.269949
0.287342
0.306639
0.319298
0.321887
0.312357
0.290939
0.258483
0.215896
0.166693
0.113243
0.0722973
0.0534194
0.41043
0.431842
0.450277
0.462125
0.465648
0.461831
0.452418
0.438635
0.421866
0.403004
0.382704
0.361729
0.340932
0.321999
0.306588
0.295988
0.292468
0.299777
0.315043
0.33116
0.341167
0.342244
0.332361
0.311576
0.280443
0.239506
0.191337
0.137427
0.0910763
0.0646551
0.406594
0.42239
0.440086
0.454294
0.461979
0.462872
0.456869
0.445921
0.431729
0.415049
0.39653
0.377232
0.358162
0.341265
0.328222
0.320121
0.318552
0.325734
0.338564
0.351178
0.358183
0.357348
0.346884
0.326729
0.297252
0.258749
0.212462
0.159595
0.1109
0.0783657
0.395038
0.403999
0.4201
0.436282
0.447898
0.453093
0.451782
0.445103
0.433688
0.419219
0.403138
0.386357
0.369833
0.355815
0.345871
0.34084
0.341336
0.348245
0.358513
0.367552
0.371476
0.368494
0.357306
0.337718
0.310095
0.273903
0.229988
0.179417
0.130453
0.0934496
0.374456
0.377251
0.391997
0.409977
0.425277
0.434774
0.438075
0.435488
0.427953
0.41706
0.404284
0.390066
0.376749
0.366331
0.360104
0.358586
0.361072
0.367562
0.375266
0.380857
0.381769
0.376624
0.364664
0.345662
0.319231
0.285372
0.244423
0.197107
0.148958
0.108945
0.346862
0.343913
0.357625
0.377375
0.396074
0.409718
0.41749
0.419228
0.415911
0.408912
0.399915
0.389604
0.379694
0.373411
0.371393
0.373627
0.377933
0.383844
0.389073
0.391512
0.389545
0.382433
0.369791
0.350927
0.325662
0.29412
0.256552
0.212386
0.16577
0.124353
0.316534
0.308752
0.320868
0.341308
0.362552
0.379859
0.391854
0.397764
0.398762
0.395959
0.391138
0.384954
0.379364
0.377533
0.380142
0.386134
0.392017
0.397204
0.400142
0.399765
0.395217
0.38644
0.373169
0.354421
0.330318
0.301281
0.266486
0.224891
0.180173
0.138581
0.287858
0.274228
0.283892
0.304123
0.327079
0.347364
0.363017
0.372813
0.377812
0.379237
0.378778
0.37699
0.376167
0.379175
0.386569
0.396178
0.403381
0.407754
0.408673
0.40579
0.39914
0.389273
0.375366
0.356887
0.334128
0.307027
0.274002
0.234755
0.192153
0.151177
0.262407
0.242438
0.248707
0.267627
0.29131
0.313811
0.332407
0.345794
0.354581
0.359927
0.363671
0.366378
0.370523
0.378705
0.390878
0.403813
0.412069
0.415624
0.414784
0.409846
0.401753
0.391012
0.376915
0.358947
0.337608
0.311343
0.279474
0.242206
0.201667
0.161854
0.240962
0.215745
0.217566
0.233734
0.256826
0.280558
0.301409
0.317897
0.330112
0.339171
0.346716
0.353767
0.362941
0.37647
0.393258
0.409112
0.418142
0.420969
0.418666
0.412291
0.403358
0.392165
0.378317
0.361561
0.340719
0.314469
0.283279
0.247542
0.208879
0.170511
0.227261
0.197677
0.193289
0.204903
0.225563
0.249116
0.271304
0.290141
0.305374
0.317799
0.328813
0.339861
0.353959
0.372777
0.39388
0.412183
0.421749
0.423996
0.420668
0.413611
0.404212
0.393215
0.380477
0.364416
0.34315
0.316661
0.285736
0.251065
0.214017
0.177189
0.224726
0.192886
0.179713
0.184411
0.200108
0.221433
0.243571
0.263755
0.281295
0.296582
0.310782
0.32535
0.344145
0.367936
0.392939
0.413225
0.42316
0.425069
0.421353
0.414019
0.405018
0.395304
0.383375
0.366957
0.34505
0.318068
0.287078
0.253076
0.21733
0.182017
0.232497
0.200178
0.180905
0.175918
0.183712
0.200086
0.220024
0.240144
0.25899
0.276447
0.293404
0.311185
0.334109
0.362309
0.390723
0.412597
0.422974
0.424833
0.421227
0.414646
0.407242
0.398276
0.386225
0.369123
0.346445
0.318814
0.287461
0.253781
0.219062
0.185171
0.25165
0.219498
0.195578
0.181875
0.179602
0.1882
0.202962
0.220955
0.23973
0.258376
0.277488
0.29817
0.324599
0.35641
0.38775
0.410947
0.421878
0.424342
0.421937
0.41713
0.410377
0.401782
0.389063
0.37106
0.347463
0.319076
0.287244
0.253564
0.219462
0.186851
0.284634
0.251763
0.224141
0.20286
0.19017
0.187412
0.194861