/*--------------------------------*- C++ -*----------------------------------*\
| =========                 |                                                 |
| \\      /  F ield         | OpenFOAM: The Open Source CFD Toolbox           |
|  \\    /   O peration     | Version:  5.0                                   |
|   \\  /    A nd           | Web:      www.OpenFOAM.org                      |
|    \\/     M anipulation  |                                                 |
\*---------------------------------------------------------------------------*/
FoamFile
{
    version     2.0;
    format      ascii;
    class       volScalarField;
    location    "1600/air";
    object      nut;
}
// * * * * * * * * * * * * * * * * * * * * * * * * * * * * * * * * * * * * * //

dimensions      [0 2 -1 0 0 0 0];

internalField   nonuniform List<scalar> 
243000
(
0.000142259
0.000145048
0.00014232
0.000137965
0.000132574
0.000126647
0.000120491
0.000114339
0.000108356
0.000102699
9.74383e-05
9.26119e-05
8.81943e-05
8.42345e-05
8.07491e-05
7.78549e-05
7.56655e-05
7.44002e-05
7.39006e-05
7.49603e-05
7.58051e-05
7.65341e-05
7.66878e-05
7.5892e-05
7.36568e-05
7.12828e-05
0.000309904
0.000308477
0.000280637
0.000304759
0.000618019
0.000654654
0.000662854
0.000661792
0.000654828
0.000643764
0.000629872
0.000614089
0.000597024
0.000579233
0.000560953
0.000542464
0.000523849
0.000505684
0.00048841
0.00047283
0.000459672
0.000450448
0.000446206
0.000444083
0.000443157
0.00044046
0.000433457
0.000420682
0.000403204
0.000380048
0.000354327
0.000321047
0.000289781
0.000281284
0.000665345
0.00070186
0.000712634
0.000712521
0.000705776
0.000694536
0.0006802
0.000663751
0.000645849
0.000627135
0.000607871
0.000588417
0.000568952
0.000550165
0.000532582
0.000517101
0.000504462
0.000496114
0.000492026
0.000491042
0.000490655
0.000488257
0.000481385
0.000468546
0.000449559
0.000424934
0.000395348
0.000359269
0.000323316
0.000297649
0.000684878
0.000723019
0.000736876
0.000739498
0.000734815
0.000725198
0.000712048
0.000696383
0.00067893
0.000660404
0.000641162
0.000621677
0.00060221
0.000583568
0.000566372
0.000551617
0.00054004
0.000532916
0.000529752
0.00052916
0.000528703
0.000526031
0.000518916
0.000505933
0.000486827
0.000461764
0.000431326
0.00039377
0.000355365
0.000324225
0.000686307
0.00072457
0.00074382
0.000750815
0.000749268
0.00074226
0.000731194
0.000717135
0.000700902
0.000683272
0.00066471
0.000645798
0.000626896
0.000608918
0.000592563
0.000578921
0.000568693
0.000562906
0.000560639
0.000560273
0.000559535
0.000556376
0.000548874
0.000535751
0.000516707
0.000491767
0.000461457
0.000424063
0.000384369
0.000350076
0.000676231
0.00071526
0.000739156
0.000750672
0.000753248
0.000749424
0.000741047
0.000729099
0.000714581
0.000698323
0.000680885
0.000662959
0.000645006
0.000628054
0.000612829
0.000600542
0.00059181
0.000587367
0.000585906
0.000585683
0.000584603
0.000580898
0.000572967
0.000559715
0.000540839
0.000516325
0.000486594
0.000450128
0.000410037
0.00037391
0.000656483
0.000698128
0.000726487
0.000742644
0.000749461
0.000749465
0.0007439
0.00073422
0.000721793
0.000707267
0.000691284
0.000674641
0.000657903
0.000642223
0.000628324
0.00061754
0.000610364
0.000607211
0.000606478
0.00060636
0.00060494
0.000600711
0.000592368
0.000579004
0.000560357
0.00053641
0.000507474
0.000472254
0.000432533
0.000395364
0.000628835
0.000674513
0.000707478
0.000728391
0.000739659
0.000743461
0.000741222
0.000734447
0.000724094
0.00071131
0.000697033
0.000681901
0.000666574
0.000652314
0.000639886
0.00063069
0.000625065
0.000623127
0.000623051
0.000623031
0.000621317
0.000616633
0.000607925
0.000594481
0.000576093
0.000552768
0.000524725
0.00049096
0.000452039
0.000414524
0.000596502
0.000646244
0.000683838
0.000709406
0.000725151
0.000732829
0.00073404
0.000730194
0.000722399
0.000711821
0.000699117
0.000685548
0.000671763
0.000659029
0.000648152
0.000640574
0.000636454
0.000635645
0.000636162
0.000636254
0.000634317
0.000629268
0.000620276
0.000606799
0.000588695
0.000566008
0.00053897
0.000506423
0.000468697
0.000431497
0.000564714
0.000617065
0.000658048
0.000687216
0.000707124
0.000718629
0.000723297
0.000722533
0.000717377
0.000709014
0.000698344
0.000686433
0.000674077
0.000662924
0.000653622
0.000647642
0.000644954
0.000645176
0.000646234
0.000646465
0.000644387
0.000639084
0.000629902
0.000616456
0.000598672
0.0005767
0.000550448
0.000518973
0.000482817
0.000446394
0.000535394
0.0005872
0.000631459
0.00066426
0.000687202
0.000701892
0.000709851
0.00071214
0.000709709
0.000703672
0.000694984
0.000684808
0.000674159
0.000664473
0.000656702
0.000652254
0.00065091
0.000652054
0.000653615
0.000654015
0.000651889
0.000646445
0.000637185
0.000623851
0.000606485
0.000585067
0.000559492
0.000528992
0.000494624
0.000459243
0.000512588
0.000557265
0.000603635
0.00064026
0.000666696
0.000684211
0.000694574
0.000699661
0.000699918
0.000696234
0.000689591
0.000681193
0.000672145
0.000664003
0.000657717
0.000654704
0.000654589
0.000656563
0.000658593
0.000659194
0.00065711
0.000651648
0.000642431
0.000629339
0.00061233
0.000591418
0.000566446
0.000536812
0.000504372
0.000470234
0.00050186
0.000529801
0.000574757
0.000614796
0.000645103
0.000665912
0.000678917
0.000686011
0.00068853
0.000687122
0.000682517
0.000675924
0.000668469
0.000661814
0.000656938
0.000655246
0.000656214
0.00065894
0.000661415
0.000662245
0.00066029
0.000654936
0.000645929
0.000633088
0.00061644
0.000596005
0.000571587
0.000543033
0.000512409
0.00047955
0.000508489
0.000510784
0.000546547
0.000587884
0.000622037
0.000646594
0.000662661
0.000672099
0.000676407
0.000676806
0.000674113
0.000669283
0.000663405
0.000658162
0.000654598
0.000654089
0.000655998
0.000659381
0.000662299
0.000663383
0.00066162
0.000656495
0.000647726
0.000635216
0.000618988
0.000599024
0.000575157
0.00054822
0.000519116
0.000487437
0.000533063
0.000508658
0.000524074
0.000560839
0.000597506
0.000625947
0.000645506
0.000657662
0.000664046
0.000666029
0.000664785
0.000661558
0.000657175
0.000653273
0.000650906
0.00065143
0.000654138
0.000658086
0.000661425
0.000662801
0.000661258
0.00065633
0.000647855
0.000635764
0.000620063
0.000600639
0.000577572
0.00055233
0.000524639
0.000494048
0.000570152
0.000530682
0.000516734
0.000537924
0.000572578
0.00060399
0.000627217
0.000642473
0.00065125
0.000655039
0.000655175
0.000653089
0.00065002
0.000647342
0.000646055
0.000647453
0.000650821
0.000655246
0.000658976
0.000660686
0.000659453
0.000654894
0.000646751
0.000635062
0.000619825
0.000600981
0.000579367
0.000555553
0.000529115
0.000499508
0.000614162
0.000571514
0.00053448
0.000527844
0.000550822
0.000581637
0.000607848
0.000626382
0.000637859
0.00064371
0.000645397
0.000644393
0.000642226
0.000640576
0.000640221
0.000642335
0.000646227
0.000651045
0.000655129
0.000657207
0.000656353
0.000652231
0.000644574
0.000633348
0.000618618
0.000600636
0.000580485
0.000557966
0.000532642
0.000503903
0.000657041
0.000618174
0.00057365
0.000540634
0.000539462
0.000561792
0.0005882
0.000609485
0.00062379
0.000631933
0.000635351
0.000635605
0.000634235
0.000633227
0.000633588
0.000636254
0.000640541
0.000645665
0.000650065
0.000652535
0.000652116
0.00064849
0.000641431
0.000630758
0.000616622
0.000599932
0.000581036
0.000559657
0.000535302
0.000507302
0.000698286
0.000664444
0.000621847
0.000576036
0.000547589
0.000550192
0.000570551
0.000592446
0.000609156
0.000619667
0.000624977
0.000626627
0.000626213
0.000625635
0.000626387
0.000629411
0.000633959
0.000639299
0.000643976
0.000646842
0.000646904
0.000643839
0.000637425
0.000627437
0.000614357
0.000598886
0.000581074
0.000560702
0.000537174
0.000509777
0.000738257
0.000707722
0.000669512
0.000622785
0.000577169
0.000554073
0.000559239
0.000576968
0.000594486
0.000607027
0.000614262
0.000617416
0.000618081
0.000618097
0.000618982
0.000622058
0.000626701
0.00063216
0.000637063
0.000640313
0.000640897
0.000638442
0.000632729
0.000623726
0.000611893
0.000597558
0.000580736
0.000561215
0.000538359
0.000511409
0.000776832
0.000748301
0.000713996
0.000670708
0.00062004
0.000576765
0.000559545
0.000566118
0.000580998
0.000594419
0.000603312
0.000607979
0.000609805
0.000610543
0.000611705
0.000614585
0.000619056
0.000624507
0.000629559
0.000633156
0.000634279
0.000632482
0.000627697
0.000619936
0.000609299
0.000596038
0.00058012
0.000561302
0.000538972
0.000512311
0.000813902
0.000787517
0.000755738
0.000715897
0.000666422
0.000613377
0.000575065
0.000563677
0.000570784
0.000582701
0.00059244
0.000598415
0.000601403
0.000602952
0.000604518
0.000607366
0.000611628
0.000616865
0.00062194
0.000625823
0.000627543
0.000626563
0.000622775
0.00061617
0.000606686
0.000594449
0.000579361
0.000561141
0.000539172
0.000512616
0.000849603
0.000824608
0.000794577
0.000757397
0.000710799
0.000655719
0.000603649
0.000572651
0.000566434
0.000573283
0.00058227
0.000588996
0.000593
0.000595383
0.000597447
0.000600408
0.000604562
0.000609627
0.000614701
0.000618823
0.000621086
0.000620873
0.000618036
0.000612527
0.000604179
0.000592957
0.000578663
0.000560936
0.000539159
0.000512508
0.00088379
0.000859433
0.000830515
0.000795261
0.000751452
0.000697833
0.000639691
0.000592821
0.000570342
0.000568025
0.000573886
0.000580302
0.000584939
0.000588072
0.000590697
0.00059389
0.000598031
0.000602968
0.000608027
0.000612344
0.000615086
0.000615599
0.000613661
0.000609203
0.000601977
0.000591783
0.00057827
0.000560978
0.000539232
0.000512273
0.00091489
0.000891269
0.000863426
0.000829787
0.000788415
0.000737445
0.000678374
0.000621787
0.000583776
0.000569225
0.000569064
0.000573601
0.000578181
0.000581847
0.00058506
0.000588602
0.000592825
0.000597682
0.00060268
0.000607106
0.000610221
0.000611365
0.000610264
0.000606782
0.000600567
0.000591324
0.00057862
0.000561789
0.000539977
0.000512366
0.00094442
0.000921476
0.000894626
0.000862513
0.000823445
0.000775516
0.000718351
0.000657823
0.000608112
0.000580383
0.000571567
0.000572216
0.000575823
0.000579755
0.000583623
0.000587686
0.000592104
0.000596877
0.00060167
0.000605955
0.000609115
0.000610588
0.000610048
0.000607247
0.00060186
0.000593486
0.00058151
0.000565003
0.000542744
0.000513867
0.000975176
0.00095328
0.000927752
0.000897466
0.000861048
0.000816859
0.00076376
0.000704413
0.000648987
0.000610347
0.000591897
0.000587172
0.000588937
0.000593082
0.000597945
0.000602814
0.000607411
0.000611807
0.000615825
0.000619163
0.000621431
0.000622261
0.000621368
0.000618457
0.000613172
0.000605018
0.000593225
0.000576466
0.000553151
0.00052178
0.00101413
0.000994142
0.000970989
0.000944022
0.00091241
0.000874924
0.000830291
0.000779209
0.000727606
0.00068645
0.000662701
0.000654289
0.000654961
0.000660037
0.000666353
0.000671939
0.00067596
0.000678636
0.000679994
0.000680151
0.000679046
0.000676687
0.000672978
0.000667671
0.000660249
0.000650166
0.000636641
0.000618014
0.000591895
0.000555477
0.00108817
0.0010729
0.00105663
0.00103921
0.00102014
0.00099836
0.000972461
0.000942234
0.000909626
0.000881847
0.000865041
0.000859593
0.000861489
0.000867692
0.000874241
0.000878816
0.000880282
0.000879391
0.000876348
0.000871498
0.000865171
0.00085775
0.000849373
0.000839808
0.00082772
0.000812925
0.000795904
0.000774476
0.000746075
0.000708
0.00132899
0.00132656
0.00132737
0.00132792
0.00132739
0.00132506
0.00132005
0.0013126
0.00130079
0.00128929
0.00128124
0.00127702
0.00127536
0.00127724
0.00127951
0.00128119
0.00128069
0.0012802
0.0012794
0.00127884
0.00127834
0.00127816
0.00127805
0.00127764
0.00127253
0.00126404
0.00125658
0.00124553
0.00123003
0.00120945
0.000172368
0.000178837
0.000176755
0.000171918
0.000165524
0.000158306
0.000150754
0.000143208
0.000135868
0.000128899
0.00012236
0.000116339
0.000110848
0.00010602
0.000101902
9.86982e-05
9.65522e-05
9.58002e-05
9.65345e-05
9.82773e-05
0.000100014
0.000100749
9.9733e-05
9.64484e-05
9.07031e-05
8.23951e-05
0.000340737
0.000313411
0.000311153
7.50701e-05
0.000658979
0.000742664
0.000717954
0.000667842
0.000612556
0.00056035
0.000513829
0.000473037
0.000437548
0.000406897
0.000380081
0.000356851
0.000336095
0.000318401
0.000303153
0.000290999
0.000281275
0.000276414
0.000275936
0.000279941
0.000287097
0.000294982
0.000298434
0.000292751
0.000278295
0.000254948
0.00024073
0.000261852
0.000346858
0.000302189
0.00103862
0.00119721
0.0012072
0.00115685
0.0010857
0.00101042
0.000939004
0.000873779
0.000815379
0.000763937
0.000718249
0.000678282
0.000642355
0.000611783
0.000585899
0.000565221
0.000548112
0.000537813
0.000531338
0.000529762
0.000533196
0.0005396
0.00053999
0.000528525
0.000501176
0.00045858
0.000407789
0.000361579
0.000381946
0.000417978
0.00127197
0.00148633
0.00153652
0.00150582
0.00144324
0.00136708
0.0012889
0.00121381
0.00114417
0.00108109
0.00102403
0.00097359
0.000928399
0.000890193
0.000858799
0.0008345
0.000814612
0.000801033
0.000788874
0.000779879
0.00077581
0.000775832
0.000770421
0.000750264
0.000711203
0.000652878
0.000580558
0.000496546
0.000452244
0.000453843
0.00138669
0.00161492
0.00170944
0.00172584
0.00168893
0.00162608
0.00155309
0.00147879
0.00140712
0.00134015
0.00127853
0.00122362
0.00117462
0.00113392
0.00110201
0.00107853
0.00105971
0.00104516
0.00102841
0.00101223
0.00100043
0.00099273
0.000979999
0.000952106
0.000904048
0.000834788
0.000748555
0.00064328
0.000556079
0.000514415
0.00144939
0.00167891
0.00180505
0.00185199
0.00184401
0.00180219
0.00174146
0.00167519
0.00160826
0.00154335
0.00148278
0.00142832
0.00138023
0.00134146
0.00131303
0.00129386
0.00127873
0.00126461
0.0012443
0.00122205
0.00120314
0.00118791
0.00116794
0.00113388
0.00107954
0.0010031
0.000908372
0.000791806
0.000679144
0.000601272
0.00146794
0.00168612
0.00182939
0.00190439
0.00192591
0.00190981
0.00187048
0.0018153
0.00175499
0.0016964
0.00164188
0.0015919
0.0015484
0.00151532
0.00149349
0.00148127
0.0014717
0.00145855
0.00143568
0.0014087
0.00138363
0.00136121
0.00133526
0.00129645
0.00123815
0.00115789
0.00105842
0.000936234
0.000810255
0.000705134
0.00143526
0.00163519
0.00179379
0.00189654
0.0019485
0.00195858
0.00194129
0.00190446
0.00185921
0.00181063
0.00176142
0.00171907
0.00168284
0.00165854
0.00164574
0.00164259
0.00163966
0.00162786
0.00160322
0.00157278
0.00154291
0.00151559
0.00148489
0.00144166
0.00138093
0.00129931
0.00119843
0.00107447
0.000942278
0.000816963
0.00133665
0.00153109
0.00170688
0.0018388
0.00192184
0.00195896
0.00196544
0.00195072
0.00192223
0.00188714
0.00184989
0.00181535
0.00178758
0.00177399
0.00177209
0.00177974
0.0017832
0.00177376
0.00174853
0.0017155
0.00168256
0.00165144
0.00161712
0.00157214
0.00150935
0.00142811
0.00132866
0.00120667
0.00107277
0.000930091
0.00121533
0.00138666
0.00157709
0.00174071
0.00185394
0.00191986
0.00195293
0.00196128
0.00195269
0.00193316
0.00190859
0.00188488
0.00186805
0.00186498
0.00187483
0.00189413
0.0019045
0.00189721
0.00187171
0.00183806
0.00180341
0.00176886
0.00173222
0.00168638
0.00162541
0.0015461
0.00144834
0.00132801
0.00119434
0.00103788
0.00110182
0.00122898
0.00141303
0.00160026
0.00175055
0.00184818
0.00191025
0.00194275
0.00195452
0.00195244
0.00194191
0.00193066
0.00192536
0.00193423
0.00195595
0.00198677
0.00200472
0.00200056
0.00197596
0.00194233
0.00190701
0.0018704
0.0018322
0.00178676
0.00172903
0.00165157
0.00155531
0.00143854
0.00130559
0.00114052
0.00101248
0.00108262
0.00123972
0.00143288
0.00161007
0.00174537
0.00184245
0.00189923
0.00193225
0.00194786
0.00195266
0.00195509
0.00196256
0.00198404
0.00201737
0.00205918
0.00208463
0.0020852
0.00206224
0.00202979
0.00199483
0.0019576
0.00191918
0.00187503
0.00181825
0.00174414
0.00165039
0.00154034
0.00140593
0.00123767
0.000955285
0.000966182
0.00107973
0.00125852
0.00144808
0.00161284
0.00174282
0.00183318
0.00188862
0.00192301
0.00194387
0.00196073
0.00198191
0.00201534
0.00206074
0.00211279
0.00214581
0.00215159
0.0021324
0.00210141
0.00206806
0.00203273
0.00199374
0.00194972
0.00189432
0.00182337
0.00173432
0.00163019
0.00149413
0.00132275
0.000954013
0.000896752
0.000952908
0.00109661
0.00128072
0.00146312
0.00161956
0.00173955
0.00182435
0.00188053
0.00191833
0.00195007
0.00198463
0.00203009
0.00208737
0.00214893
0.0021893
0.00220102
0.0021872
0.0021583
0.00212499
0.00208824
0.00205041
0.00201014
0.00195792
0.00189086
0.00180992
0.00170631
0.00156897
0.00139486
0.000997689
0.000891557
0.000882755
0.000971378
0.00112746
0.00131016
0.00148285
0.00162614
0.00173709
0.00181923
0.00187804
0.00192484
0.00197273
0.00202994
0.00209849
0.0021689
0.00221662
0.00223499
0.00222762
0.00220235
0.00217135
0.00213614
0.00209757
0.00205638
0.00201001
0.00194994
0.00187528
0.00177006
0.00163055
0.00145371
0.001095
0.000951901
0.000879271
0.000903258
0.0010098
0.0011701
0.00134418
0.00150204
0.0016339
0.00173927
0.00182121
0.00188671
0.0019478
0.00201626
0.00209534
0.00217399
0.00222909
0.00225487
0.00225452
0.00223447
0.00220697
0.002175
0.00213833
0.00209832
0.00205483
0.00200261
0.00192859
0.00182173
0.00167937
0.00149955
0.00125128
0.00108251
0.00095824
0.000906358
0.000948715
0.00106206
0.00121734
0.00137757
0.00152261
0.0016465
0.00174903
0.00183498
0.00191136
0.00199045
0.00207917
0.00216555
0.00222805
0.00226173
0.00226909
0.00225574
0.00223279
0.00220506
0.00217406
0.00213724
0.00209789
0.00204794
0.00197176
0.00186234
0.00171635
0.00153315
0.00146409
0.00127973
0.00111822
0.00100104
0.000959314
0.00100758
0.00111998
0.00126503
0.00141218
0.00154762
0.00166643
0.00177026
0.00186374
0.0019539
0.00205145
0.0021451
0.00221496
0.00225683
0.00227262
0.00226743
0.00225018
0.00222841
0.00220383
0.00217464
0.00213825
0.0020855
0.0020063
0.00189336
0.00174284
0.00155565
0.00172649
0.0015334
0.00134734
0.00118022
0.00106212
0.00102348
0.00107161
0.00117935
0.00131325
0.00145036
0.00157913
0.00169676
0.00180477
0.00190871
0.002014
0.00211437
0.00219149
0.0022417
0.00226673
0.00227087
0.00226152
0.00224783
0.00223167
0.00220974
0.00217218
0.00211661
0.00203409
0.00191667
0.00176054
0.00156858
0.00202662
0.00182921
0.00162695
0.00142524
0.00124613
0.00112517
0.00108896
0.00113626
0.0012383
0.00136364
0.0014937
0.00161924
0.00173778
0.00185347
0.00196871
0.00207514
0.00215929
0.00221795
0.00225319
0.00226828
0.00226967
0.00226453
0.00225641
0.00223943
0.00220026
0.00214315
0.00205748
0.00193443
0.00177153
0.00157371
0.0023469
0.00214802
0.00193523
0.00171031
0.00148804
0.0012992
0.00118041
0.00114909
0.0011986
0.00129711
0.0014174
0.00154264
0.00166646
0.00178987
0.00191146
0.00202528
0.00211746
0.00218503
0.00223021
0.00225658
0.00226877
0.00227329
0.00227188
0.00225699
0.0022243
0.00216736
0.002077
0.00194803
0.00177773
0.00157314
0.00266376
0.00246557
0.00224696
0.00200782
0.00175763
0.00152031
0.00133197
0.00122298
0.00120427
0.00125795
0.00135629
0.00147124
0.00159255
0.00171632
0.00183816
0.00195379
0.00205095
0.00212712
0.00218247
0.00222039
0.00224441
0.00225909
0.00226641
0.00226202
0.00223578
0.00217892
0.00208614
0.00195514
0.00177928
0.00156819
0.00294688
0.00275195
0.00253284
0.00228796
0.00202316
0.00175602
0.00151752
0.00134213
0.00125396
0.00125075
0.00130758
0.00140258
0.00151029
0.00162373
0.0017347
0.00184261
0.0019402
0.00202065
0.00208408
0.00213236
0.0021698
0.00219884
0.00221982
0.00223089
0.0022195
0.0021731
0.00208263
0.0019476
0.00177209
0.00155827
0.00315881
0.00297155
0.00275893
0.00251775
0.00225101
0.00197079
0.00170176
0.00147663
0.00132645
0.00126245
0.00126815
0.00132128
0.00139858
0.00148597
0.00157258
0.00166097
0.0017468
0.00182426
0.0018935
0.00195443
0.00200867
0.00205658
0.00209797
0.00213146
0.00214388
0.00212226
0.0020499
0.0019247
0.00174751
0.00153782
0.00325768
0.00308584
0.00288905
0.00266231
0.00240604
0.0021278
0.00184613
0.00158956
0.00139044
0.00126758
0.00121494
0.00121263
0.00124275
0.00128952
0.00134594
0.00140911
0.00147506
0.00154313
0.00161122
0.0016785
0.00174529
0.00181088
0.00187467
0.00193232
0.00197407
0.00198655
0.00195245
0.00185521
0.00170231
0.00150276
0.0032133
0.00306861
0.00289927
0.00269893
0.00246594
0.00220518
0.00193136
0.00166897
0.00144782
0.00128835
0.0011915
0.00114468
0.00113701
0.00115577
0.0011931
0.00123901
0.0012861
0.00133549
0.00138731
0.00144217
0.00149925
0.00155915
0.00162155
0.00168359
0.00173798
0.00177299
0.00177215
0.00171809
0.00159518
0.00143025
0.00304421
0.00294104
0.00281387
0.00265582
0.00246444
0.00224483
0.00201086
0.00178415
0.00158827
0.00143998
0.00134001
0.00128472
0.00127022
0.0012838
0.00131605
0.0013529
0.00138471
0.00141478
0.0014442
0.00147243
0.00150079
0.00153088
0.00156322
0.00159639
0.00162621
0.0016448
0.00163868
0.00159167
0.00148699
0.00132361
0.00288275
0.00283038
0.0027543
0.00264993
0.0025155
0.00235802
0.00219039
0.00202761
0.00188501
0.00177178
0.00169075
0.00164781
0.00163619
0.0016476
0.00167301
0.00170114
0.00172301
0.00174366
0.00176066
0.0017753
0.0017882
0.00180041
0.00181192
0.00182075
0.00182353
0.00181532
0.00178559
0.00171914
0.00159908
0.00141497
0.00279444
0.00277505
0.00275092
0.00270531
0.00263564
0.00254525
0.00244087
0.00233494
0.00223665
0.00215281
0.00209002
0.00205235
0.00203552
0.0020359
0.00204608
0.00206151
0.0020752
0.00209104
0.00210625
0.00212242
0.0021394
0.00215688
0.00217371
0.00218745
0.0021943
0.00219175
0.00217134
0.00212124
0.00203015
0.0018899
0.00277413
0.0027744
0.00277409
0.00275627
0.00272057
0.00267379
0.00261609
0.00255272
0.00248903
0.00243371
0.00238763
0.00235305
0.00232993
0.00231897
0.00231542
0.00232089
0.00232936
0.00234281
0.0023603
0.00238269
0.00240896
0.00243758
0.00246658
0.00249385
0.0025164
0.00253574
0.00254388
0.00253465
0.00250949
0.00246409
0.000198804
0.000205179
0.000201272
0.000195346
0.000187986
0.000179776
0.000171229
0.000162715
0.000154446
0.000146599
0.00013923
0.000132444
0.000126227
0.000120754
0.000116086
0.000112518
0.000110326
0.000110405
0.000113157
0.00011735
0.000120843
0.000122241
0.000120782
0.000115963
0.000107413
9.46514e-05
7.75266e-05
6.75566e-05
0.000310944
7.81246e-05
0.000848858
0.000973048
0.000975806
0.00092224
0.000852587
0.000783848
0.000721829
0.000667293
0.000619472
0.000577635
0.000540063
0.000506501
0.000474852
0.000446579
0.000420257
0.000397552
0.000378397
0.000371471
0.000376753
0.000393567
0.000415373
0.000435213
0.000442236
0.000428746
0.000394073
0.000344006
0.000287602
0.000256682
0.000309851
0.000327065
0.00135428
0.0015887
0.00164558
0.00160857
0.00153034
0.00143881
0.00134759
0.00126234
0.00118438
0.00111395
0.00104923
0.000990391
0.000934494
0.000884296
0.000838437
0.000798191
0.000763028
0.000744875
0.000740311
0.000752661
0.0007756
0.000800607
0.000805828
0.000778354
0.00071992
0.00062994
0.000523158
0.000426475
0.00040593
0.000482956
0.00171824
0.00200093
0.00209413
0.00208915
0.00202623
0.00193798
0.00184122
0.00174528
0.00165375
0.00156843
0.00148854
0.00141511
0.00134569
0.00128357
0.00122828
0.00118017
0.00113703
0.00110928
0.00109247
0.00109456
0.00110886
0.00113057
0.00113107
0.00109596
0.00101848
0.000901354
0.00075926
0.000609023
0.00051669
0.000537747
0.00195344
0.00223262
0.00237069
0.00240588
0.00236895
0.00229626
0.00220695
0.00211327
0.00201963
0.00192973
0.00184429
0.0017653
0.00169085
0.00162539
0.00156925
0.00152061
0.00147449
0.001438
0.00140835
0.00139648
0.00140231
0.00141733
0.00141439
0.00137339
0.00128626
0.00115396
0.000989691
0.000805907
0.000658611
0.000618605
0.00209883
0.00236272
0.00252469
0.00259376
0.00259191
0.00254133
0.00246659
0.00238445
0.00229634
0.00220954
0.00212598
0.00204823
0.00197599
0.0019143
0.00186378
0.00181964
0.00177297
0.00172759
0.0016855
0.00166129
0.0016566
0.00166503
0.00165878
0.0016162
0.00152567
0.00138725
0.00121187
0.00100835
0.000824297
0.000732377
0.00220195
0.0024405
0.00260201
0.00269121
0.0027181
0.00269904
0.00265184
0.00257755
0.00249729
0.00241963
0.00234437
0.00227311
0.00220899
0.00215718
0.00211704
0.00208067
0.00203473
0.00197999
0.00192631
0.00189096
0.00187718
0.00187823
0.00186883
0.00182797
0.00173896
0.0016014
0.00142357
0.00121246
0.00100427
0.000870583
0.00225409
0.0024472
0.00260459
0.00271163
0.00276676
0.00277712
0.00275586
0.0027057
0.00264665
0.00257855
0.00250883
0.00244801
0.00239624
0.00235967
0.00233359
0.00230734
0.00226216
0.00219836
0.00213449
0.0020898
0.00206822
0.00206161
0.00204931
0.00201078
0.00193018
0.00179784
0.00162563
0.00141294
0.00119316
0.00102151
0.00222075
0.00238398
0.00254009
0.00266587
0.00275011
0.00279124
0.0027973
0.0027748
0.00273512
0.00268479
0.00263147
0.00258275
0.00254431
0.0025263
0.00251708
0.00250284
0.00245743
0.00238597
0.00231413
0.00226133
0.00223353
0.00222012
0.00220496
0.00216915
0.00209811
0.0019775
0.0018102
0.00160188
0.00137873
0.00117799
0.00211996
0.00225894
0.00241674
0.00256342
0.00267855
0.00275178
0.0027875
0.00279278
0.00277708
0.00274751
0.00271266
0.00268122
0.00266137
0.00266165
0.00267057
0.00266906
0.0026235
0.00254636
0.00246942
0.00241075
0.00237722
0.00235809
0.00234024
0.00230795
0.00224467
0.00213557
0.00197727
0.00177896
0.00155687
0.00133512
0.00200336
0.00210607
0.00225503
0.00241717
0.00256067
0.00266737
0.0027346
0.00276856
0.0027787
0.00277257
0.00275879
0.00274777
0.00274829
0.00276858
0.00279718
0.00280738
0.00276143
0.00268128
0.00260071
0.00254025
0.00250262
0.00247927
0.00245932
0.00242916
0.00237024
0.00227175
0.00212666
0.00194312
0.00172459
0.00149339
0.00189156
0.0019375
0.00206648
0.00223638
0.0024048
0.00254416
0.00264512
0.00270919
0.00274668
0.00276513
0.00277444
0.00278608
0.00280953
0.00284973
0.00289871
0.00291932
0.00287669
0.00279636
0.00271549
0.00265364
0.00261302
0.00258743
0.00256564
0.00253448
0.00247918
0.0023903
0.00226209
0.00208977
0.00187686
0.00164106
0.00179615
0.0017709
0.00186737
0.00203327
0.00221961
0.00238883
0.00252313
0.00261997
0.00268667
0.00273064
0.00276432
0.00279967
0.00284594
0.00290796
0.00297648
0.00300691
0.00296974
0.00289351
0.00281408
0.00275261
0.0027119
0.00268396
0.00265889
0.00262702
0.00257519
0.00249748
0.0023841
0.00221978
0.00201227
0.00177439
0.00173118
0.0016349
0.00168256
0.0018264
0.00201763
0.00220963
0.00237471
0.00250378
0.00260075
0.00267315
0.00273184
0.00279133
0.00286073
0.00294517
0.00303192
0.0030722
0.00304294
0.00297435
0.00289834
0.00283915
0.00279381
0.0027628
0.00273846
0.00270884
0.00266173
0.00259561
0.00249057
0.00233313
0.00213019
0.00189155
0.00174053
0.0015695
0.00154539
0.0016428
0.00181808
0.00201908
0.00220788
0.00236641
0.00249335
0.00259461
0.00268038
0.0027639
0.00285569
0.00296315
0.00306646
0.00311708
0.00309843
0.00304048
0.00297037
0.00291557
0.00287027
0.00283794
0.00281344
0.00278375
0.00274477
0.00268367
0.00258262
0.00243038
0.00223065
0.00199151
0.00181257
0.00160186
0.001496
0.00151874
0.00164924
0.00183666
0.00203503
0.00221587
0.00236984
0.00249901
0.00261179
0.00271996
0.00283306
0.00296301
0.00308139
0.00314347
0.00313807
0.00309335
0.00303196
0.00298208
0.00294156
0.00291068
0.00288734
0.00285855
0.00282342
0.0027618
0.00266167
0.00251325
0.00231426
0.00207403
0.00196291
0.00172642
0.00155703
0.00149249
0.00154834
0.00169044
0.00187499
0.00206395
0.00223765
0.00239118
0.00252939
0.00266155
0.00279501
0.00294552
0.00307767
0.00315247
0.00316265
0.00313327
0.00308315
0.00304007
0.00300595
0.002981
0.00295824
0.00293112
0.00289372
0.00283025
0.00272852
0.00258012
0.00238136
0.00213928
0.00221009
0.00195614
0.00173934
0.00159283
0.00154692
0.00161464
0.00175313
0.0019271
0.00210706
0.00227737
0.00243695
0.00259062
0.00274389
0.00291074
0.00305548
0.00314384
0.00317132
0.00315913
0.0031231
0.00308884
0.00306308
0.00304435
0.00302145
0.00299381
0.00295484
0.00288883
0.0027838
0.00263253
0.00243236
0.00218757
0.00253247
0.00227037
0.00202264
0.00181169
0.0016714
0.00163071
0.00169533
0.0018249
0.0019912
0.00216519
0.00233863
0.00250831
0.00267973
0.00285688
0.00301252
0.00311431
0.00316012
0.00316652
0.00314724
0.00312351
0.00310744
0.00309006
0.00306887
0.00304551
0.00300649
0.0029378
0.00282827
0.00267198
0.00246748
0.00221991
0.00289855
0.00263396
0.00236747
0.00211242
0.00189633
0.00175558
0.00171715
0.00177679
0.0019045
0.00206219
0.00223822
0.00241653
0.00259804
0.0027789
0.00293984
0.00305374
0.00311778
0.00314311
0.00314089
0.00313125
0.00312243
0.00311692
0.00310969
0.00309141
0.00305236
0.00297997
0.00286412
0.00270031
0.00248892
0.00223715
0.00326976
0.00300564
0.00272877
0.00244655
0.00217868
0.00195755
0.00182065
0.00178787
0.00184331
0.00197524
0.00213767
0.0023096
0.00249004
0.00266868
0.00282128
0.00294068
0.00302037
0.00306495
0.00308397
0.00308748
0.00309135
0.0030981
0.00310214
0.00309209
0.00305634
0.00298996
0.00287892
0.00271498
0.00249858
0.00224074
0.00360453
0.00334341
0.0030631
0.00276718
0.00246892
0.00219323
0.00197638
0.00185174
0.00182808
0.00189165
0.00201597
0.00216721
0.0023285
0.00248557
0.00262996
0.00274829
0.00284106
0.00290183
0.00293864
0.00296275
0.00298488
0.00300976
0.00303109
0.00303871
0.00301512
0.00294936
0.00284582
0.00269615
0.00248652
0.00223055
0.0038616
0.00360759
0.00333119
0.00303329
0.00272227
0.00241578
0.00214364
0.00194117
0.00183282
0.00181715
0.00187598
0.00197882
0.00210542
0.00223316
0.00235242
0.00246375
0.0025617
0.002633
0.00268868
0.00273395
0.00277956
0.00282672
0.00287071
0.00290249
0.00290588
0.00285961
0.00276226
0.00261626
0.00242984
0.00219211
0.00400406
0.00376448
0.00350101
0.00321259
0.00290389
0.00258672
0.00228371
0.00202603
0.00184344
0.00174744
0.00172661
0.00176335
0.00183942
0.0019357
0.00203608
0.00213848
0.00222872
0.002305
0.00237076
0.00243168
0.0024944
0.00255825
0.00262106
0.00267506
0.00270594
0.00269472
0.00262192
0.00249715
0.00231819
0.00210155
0.00401037
0.00379592
0.00355703
0.00329092
0.00299967
0.00269122
0.00238315
0.00210217
0.00187764
0.00172643
0.00164456
0.00162721
0.00166337
0.00173298
0.00182534
0.0019152
0.00199215
0.00205885
0.00211918
0.00217801
0.00223573
0.00229528
0.00235607
0.00241247
0.00245304
0.00246172
0.00242013
0.00231596
0.00216408
0.00198064
0.00389328
0.00371859
0.00352013
0.00329303
0.00303788
0.00276128
0.00247906
0.00221542
0.00199679
0.00183615
0.00173427
0.00169819
0.00171605
0.0017711
0.00185233
0.00192675
0.00198512
0.00203286
0.00207739
0.00211577
0.00215124
0.00218654
0.00222219
0.00225502