/*--------------------------------*- C++ -*----------------------------------*\
| =========                 |                                                 |
| \\      /  F ield         | OpenFOAM: The Open Source CFD Toolbox           |
|  \\    /   O peration     | Version:  5.0                                   |
|   \\  /    A nd           | Web:      www.OpenFOAM.org                      |
|    \\/     M anipulation  |                                                 |
\*---------------------------------------------------------------------------*/
FoamFile
{
    version     2.0;
    format      ascii;
    class       volScalarField;
    location    "1250/air";
    object      alphat;
}
// * * * * * * * * * * * * * * * * * * * * * * * * * * * * * * * * * * * * * //

dimensions      [1 -1 -1 0 0 0 0];

internalField   nonuniform List<scalar> 
243000
(
0.000146774
0.000153432
0.000152298
0.000148887
0.000143946
0.000138219
0.000132181
0.000126134
0.000120242
0.00011462
0.000109283
0.000104268
9.95512e-05
9.52725e-05
9.15379e-05
8.86475e-05
8.67666e-05
8.53475e-05
8.63276e-05
8.68748e-05
8.70424e-05
8.69295e-05
8.58153e-05
8.5509e-05
0.000380254
0.000375699
0.000370448
0.000368795
0.000345889
0.00037461
0.000632087
0.00068462
0.000701902
0.000707617
0.000705633
0.000698815
0.000688617
0.000676112
0.000661921
0.000646516
0.00063004
0.000612925
0.000595411
0.000578663
0.000563532
0.000551832
0.000543956
0.00054182
0.000538529
0.000534574
0.000528012
0.000517567
0.000503902
0.000484637
0.000464063
0.000440791
0.000415508
0.000382007
0.000348551
0.000335431
0.000673248
0.000728776
0.000749763
0.000758134
0.000757638
0.000751679
0.000741885
0.000729458
0.000715103
0.000699411
0.000682658
0.000665477
0.000648272
0.000632447
0.000618956
0.000609726
0.000604737
0.000603328
0.00060238
0.000599362
0.000592575
0.000581158
0.000564604
0.000543573
0.00051896
0.000491108
0.000460821
0.000426324
0.000388634
0.000359413
0.000677699
0.00073922
0.000768531
0.000781678
0.000784847
0.00078159
0.000773826
0.000762891
0.000749648
0.000734841
0.000718891
0.000702648
0.000686685
0.000672655
0.000661607
0.000655532
0.000653909
0.000655168
0.000655639
0.000652973
0.000645635
0.000633184
0.000615375
0.000592757
0.000566088
0.000535808
0.000502447
0.000465218
0.00042575
0.000390627
0.000660682
0.000727309
0.00076483
0.000785439
0.000794368
0.000795204
0.000790548
0.000782054
0.000770792
0.000757671
0.00074329
0.000728713
0.000714714
0.000703178
0.000695215
0.000692807
0.00069475
0.000698705
0.00070058
0.000698144
0.000690201
0.000676746
0.000657862
0.000634101
0.000606141
0.000574371
0.000539128
0.000499799
0.000459173
0.000421311
0.000626607
0.000700546
0.000746775
0.000774953
0.000790186
0.000796151
0.000795504
0.000790205
0.000781648
0.000770839
0.000758625
0.000746289
0.000734827
0.000726357
0.000722021
0.000723677
0.000729244
0.000735814
0.000738981
0.000736701
0.000728164
0.000713788
0.000693982
0.00066935
0.000640547
0.000607898
0.000571581
0.000531069
0.000489299
0.000449674
0.000587896
0.00066442
0.000716829
0.000752739
0.000774835
0.000786675
0.000790875
0.000789636
0.00078424
0.000776238
0.000766733
0.000757127
0.000748693
0.000743796
0.000743554
0.000749568
0.000758757
0.000767802
0.000772134
0.000769956
0.000760863
0.000745666
0.000725073
0.000699769
0.000670399
0.000637258
0.000600416
0.000559322
0.00051656
0.000475737
0.000548127
0.000625891
0.000683027
0.000723147
0.000750788
0.000768628
0.000778171
0.00078148
0.000780038
0.000775466
0.00076893
0.000762467
0.000757518
0.000756622
0.000760942
0.0007715
0.000784255
0.000795612
0.000800973
0.000798871
0.000789279
0.000773371
0.00075211
0.000726285
0.000696544
0.000663173
0.000626163
0.000584897
0.000541427
0.000499753
0.000517279
0.000584254
0.000646457
0.000691923
0.000723732
0.000745008
0.000759194
0.000767171
0.000770047
0.000769312
0.000766289
0.000763282
0.000762183
0.000765767
0.000774972
0.000790199
0.000806452
0.000819927
0.000826195
0.000824153
0.000814134
0.000797624
0.000775814
0.00074959
0.000719623
0.000686198
0.000649246
0.00060812
0.000564232
0.00052196
0.000509501
0.000545596
0.000606658
0.000657548
0.000694685
0.000720322
0.000737717
0.000748501
0.000755503
0.00075875
0.000759551
0.000760367
0.000763449
0.000771906
0.000786251
0.000806213
0.000825866
0.000841259
0.000848322
0.000846337
0.000835967
0.000818972
0.000796727
0.000770213
0.000740131
0.000706781
0.000670032
0.00062929
0.000585112
0.000542484
0.000542631
0.000530269
0.000568849
0.000619972
0.000662562
0.000693499
0.000715063
0.000729195
0.000738559
0.000744939
0.000749484
0.000754309
0.000761915
0.000775572
0.00079527
0.000819965
0.000842874
0.000859991
0.000867751
0.000865831
0.000855194
0.000837826
0.00081526
0.000788563
0.000758462
0.000725274
0.000688852
0.000648464
0.000604271
0.000561483
0.000587126
0.00056182
0.000552926
0.000585063
0.00062797
0.000663941
0.00069049
0.000708763
0.000721171
0.000729784
0.000737022
0.000745701
0.000758016
0.000777267
0.000802411
0.000831765
0.000857745
0.000876416
0.000884784
0.00088295
0.000872133
0.000854509
0.000831738
0.000804963
0.000774927
0.000741962
0.000705931
0.000665856
0.000621891
0.000579248
0.000632012
0.000610776
0.000579155
0.000570706
0.000596989
0.00063282
0.000663793
0.000686753
0.000702918
0.000714357
0.000723669
0.000735213
0.000752192
0.000777046
0.000807924
0.000841833
0.000870666
0.000890756
0.000899656
0.000897937
0.000887031
0.000869269
0.000846413
0.000819666
0.000789779
0.000757108
0.000721374
0.000681683
0.000638127
0.000595672
0.000676006
0.000658843
0.000631873
0.000595104
0.000585439
0.000606163
0.000636449
0.000663255
0.000683566
0.000698387
0.000710283
0.000723654
0.000744887
0.000775492
0.000812021
0.000850311
0.000881779
0.00090316
0.000912544
0.000910982
0.000900084
0.000882299
0.00085948
0.000832873
0.000803213
0.000770859
0.000735447
0.000696142
0.000653132
0.000610937
0.000719249
0.000704564
0.000681582
0.000647646
0.000608268
0.000596765
0.000613604
0.000639686
0.0006633
0.000681757
0.000696702
0.000712449
0.000736592
0.000772803
0.000814838
0.000857285
0.000891176
0.000913735
0.000923578
0.000922231
0.000911441
0.000893751
0.000871097
0.000844725
0.000815401
0.000783388
0.000748318
0.000709383
0.000667042
0.000625187
0.00076198
0.000748349
0.000727562
0.00069742
0.000652753
0.000614416
0.000604429
0.000619834
0.000643194
0.000664641
0.000682876
0.000701452
0.000727703
0.000769122
0.000816453
0.000862784
0.000898899
0.000922551
0.000932859
0.000931792
0.000921211
0.000903754
0.00088138
0.000855383
0.00082649
0.00079485
0.000760128
0.000721553
0.00067998
0.000638545
0.000804257
0.00079067
0.000770744
0.000742729
0.000703486
0.000653785
0.00061661
0.000609936
0.000625742
0.000647747
0.000668916
0.000690606
0.000719337
0.000764697
0.000816895
0.000866795
0.000904954
0.000929641
0.000940462
0.000939746
0.000929512
0.000912413
0.000890463
0.000864961
0.000836558
0.000805355
0.000771012
0.000732801
0.000692073
0.00065112
0.000846105
0.000831894
0.000811974
0.000784873
0.000748475
0.000699147
0.000647229
0.000615372
0.000614753
0.000632531
0.000655212
0.000679955
0.000711473
0.000759653
0.000816079
0.00086926
0.000909305
0.000935013
0.000946436
0.000946208
0.000936437
0.00091984
0.00089844
0.00087355
0.000845715
0.000815019
0.0007811
0.00074327
0.000703437
0.000663022
0.000887468
0.000872191
0.000851714
0.000824743
0.000789517
0.000743122
0.000687027
0.000636381
0.000613918
0.000621096
0.000642526
0.000669664
0.00070403
0.000754051
0.000814093
0.000870117
0.000911875
0.000938661
0.000950833
0.000951223
0.000942073
0.000926115
0.00090541
0.000881211
0.000854058
0.000823956
0.000790529
0.000753115
0.000714198
0.000674362
0.000928264
0.000911635
0.000890254
0.000862949
0.00082819
0.000784266
0.000728589
0.000668048
0.000624881
0.000615669
0.000631883
0.000660038
0.000696991
0.000747998
0.000810868
0.000869427
0.000912769
0.000940527
0.000953658
0.000954815
0.000946476
0.000931314
0.000911442
0.000888048
0.00086169
0.000832314
0.000799487
0.000762537
0.000724516
0.000685267
0.000968507
0.000950307
0.000927797
0.000899886
0.00086532
0.000823038
0.000768772
0.000704476
0.000645942
0.000617927
0.000624479
0.000651511
0.000690427
0.000742517
0.000806458
0.000866974
0.000911969
0.000940856
0.000954882
0.000957006
0.000949688
0.000935545
0.000916622
0.000894174
0.000868739
0.000840232
0.000808127
0.000771721
0.000734547
0.000695885
0.00100831
0.000988442
0.000964674
0.000936146
0.000902842
0.000860712
0.000807204
0.000741706
0.000673672
0.000628064
0.00062148
0.000644757
0.000684619
0.000737547
0.000800932
0.00086271
0.000909079
0.000939276
0.000954584
0.000957795
0.00095175
0.000938808
0.000921038
0.000899711
0.000875358
0.00084788
0.000816655
0.000780947
0.00074449
0.000706358
0.00104882
0.00102705
0.00100196
0.000973777
0.000939992
0.000897372
0.000843877
0.000777995
0.000704723
0.000644953
0.000623611
0.000640542
0.00067992
0.000733163
0.000795051
0.000856621
0.000904017
0.000935546
0.000952275
0.000956931
0.000952288
0.000940926
0.000924599
0.000904645
0.000881612
0.00085539
0.000825267
0.000790385
0.000754566
0.000716855
0.00108846
0.00106771
0.00104399
0.00101414
0.00097764
0.000933446
0.000879238
0.000813101
0.000737138
0.000667159
0.000631214
0.000639204
0.000676723
0.0007298
0.000790304
0.000849641
0.000896778
0.000929467
0.000947714
0.000954043
0.000951086
0.000941444
0.000926878
0.000908644
0.000887292
0.000862676
0.000834004
0.000800191
0.000765019
0.000727618
0.00112646
0.0011073
0.00108315
0.00105226
0.0010135
0.000968173
0.000913743
0.000847885
0.000770933
0.000694205
0.000645273
0.000642587
0.000676094
0.000728397
0.000787858
0.00084536
0.000891492
0.000924077
0.000943347
0.000951126
0.000949747
0.000941393
0.000928071
0.00091127
0.000891868
0.000869267
0.000842514
0.000810525
0.000776209
0.000739066
0.00115704
0.00113772
0.00111358
0.0010827
0.00104575
0.00100196
0.000949108
0.000884918
0.000808795
0.000728574
0.000669174
0.000655032
0.000683074
0.000733625
0.000791686
0.00084735
0.000892366
0.000924609
0.000944296
0.00095294
0.000952903
0.000945799
0.000933554
0.000917669
0.000898965
0.000877331
0.000852166
0.000822617
0.000789527
0.000752586
0.00118157
0.00116221
0.00114003
0.00111317
0.00108031
0.00104023
0.00099116
0.000931047
0.00085886
0.000779777
0.000714653
0.000690074
0.000710864
0.000758157
0.000813693
0.000866401
0.000908896
0.000939511
0.000958453
0.000967136
0.000967583
0.000961079
0.000949414
0.00093401
0.000915689
0.00089457
0.000870225
0.000842056
0.000809805
0.000772711
0.00122136
0.0012028
0.00118217
0.00115851
0.0011306
0.00109696
0.00105578
0.00100517
0.000944064
0.000875641
0.000815318
0.000787132
0.000800016
0.000840188
0.000888928
0.000934281
0.000969911
0.000995394
0.00101073
0.00101704
0.0010159
0.00100838
0.000996002
0.000980026
0.000961202
0.000939637
0.000915147
0.000887176
0.000854846
0.000816409
0.00129936
0.00128486
0.00127061
0.00125614
0.00124037
0.00122165
0.00119816
0.00116851
0.00113224
0.00109062
0.00105298
0.00103452
0.0010415
0.00106734
0.00109903
0.00112759
0.00114862
0.0011627
0.00116959
0.00117013
0.00116502
0.00115513
0.00114149
0.00112491
0.00110577
0.00108331
0.0010582
0.00103052
0.000998932
0.00096132
0.0015639
0.00156323
0.00156624
0.00156868
0.00156966
0.00156844
0.00156424
0.00155708
0.00154713
0.00153222
0.00151814
0.00150978
0.00150829
0.00151312
0.00151964
0.00152673
0.00153143
0.00153507
0.00153706
0.00153807
0.00153796
0.00153698
0.00153517
0.00153244
0.00152854
0.00151813
0.00150574
0.00149396
0.00147867
0.00145865
0.000178968
0.000189514
0.000189741
0.000186279
0.000180691
0.000174
0.000166827
0.000159569
0.000152445
0.000145633
0.000139195
0.000133251
0.00012782
0.000123144
0.000119334
0.000116689
0.00011513
0.000114506
0.000114434
0.000114448
0.000113847
0.000111967
0.00010836
0.000102949
9.60465e-05
8.80441e-05
0.0003712
0.000365258
0.000367694
9.02569e-05
0.000637795
0.000741414
0.000734896
0.000697494
0.000653201
0.000609158
0.000569085
0.000533638
0.000502601
0.000475944
0.000452867
0.000433753
0.000417768
0.00040659
0.000398924
0.000395487
0.000391853
0.000387689
0.000381461
0.000374936
0.000368799
0.000362385
0.00035266
0.000338574
0.000319006
0.000291883
0.000300894
0.000347426
0.00037949
0.000360761
0.000994433
0.00117511
0.0012116
0.00118856
0.00114072
0.0010854
0.00103056
0.000979613
0.000933595
0.000893539
0.000858896
0.000831067
0.000809109
0.000796268
0.000789868
0.000789719
0.000785863
0.000775914
0.000756711
0.000732717
0.000708027
0.000684941
0.000659846
0.000627827
0.000586541
0.000534099
0.000486301
0.000455763
0.000457655
0.0005
0.00117384
0.00141394
0.00151608
0.00152441
0.00149733
0.0014511
0.00139867
0.00134681
0.00129834
0.00125578
0.00121973
0.001193
0.00117527
0.00117051
0.00117424
0.00118433
0.00118492
0.00117083
0.00113807
0.00109455
0.00104792
0.00100332
0.000957336
0.000904581
0.0008412
0.000764344
0.000682839
0.000603454
0.000551369
0.000554776
0.00124417
0.00149517
0.00164411
0.00171455
0.00172812
0.00170442
0.00166552
0.0016229
0.00158125
0.0015449
0.00151612
0.00149925
0.00149501
0.00150726
0.00152939
0.00155557
0.00156321
0.00154631
0.00150069
0.00143833
0.00137022
0.00130399
0.00123761
0.00116524
0.00108194
0.000983996
0.000877203
0.000767475
0.000671375
0.000624484
0.00122262
0.00149556
0.0016887
0.0018015
0.0018518
0.00185974
0.00184291
0.00181695
0.00178901
0.00176577
0.00175138
0.0017519
0.00176911
0.0018064
0.00185471
0.00190051
0.00191578
0.00189629
0.00183825
0.00175801
0.00167
0.00158374
0.0014987
0.00140883
0.00130826
0.00119225
0.00106615
0.000934534
0.000808673
0.000719571
0.00112997
0.00140856
0.00164383
0.00179965
0.00189003
0.00193211
0.00194349
0.00193993
0.00193065
0.00192617
0.00193238
0.00195688
0.00200267
0.00207323
0.00215368
0.00222082
0.00224276
0.00221982
0.00214979
0.0020527
0.0019466
0.00184238
0.0017407
0.00163553
0.0015198
0.00139029
0.00124947
0.00110196
0.000955415
0.000833184
0.000998107
0.00125753
0.00151416
0.00171658
0.0018527
0.00193274
0.00197636
0.00199983
0.00201492
0.00203443
0.00206558
0.00212019
0.00220224
0.00231345
0.00242981
0.00251857
0.00254504
0.00251761
0.00243589
0.00232311
0.00220078
0.00208079
0.00196443
0.00184574
0.0017182
0.00157818
0.00142643
0.00126709
0.00110691
0.000958414
0.000857834
0.00107807
0.00133526
0.0015691
0.00174694
0.00186929
0.00194954
0.00200448
0.00204826
0.00209618
0.0021581
0.00224723
0.00237388
0.00253215
0.00268528
0.00279522
0.00282368
0.00279062
0.0026978
0.00257061
0.00243394
0.00230028
0.00217125
0.00204067
0.00190386
0.00175578
0.00159622
0.00142834
0.00125927
0.00109005
0.000754932
0.000904079
0.00113668
0.00138125
0.00159007
0.00175039
0.00186888
0.00195961
0.00203558
0.0021165
0.00221466
0.00234462
0.0025243
0.00273213
0.00292247
0.00305164
0.00307969
0.00303996
0.00293688
0.00279681
0.00264771
0.00250252
0.00236256
0.00222204
0.00207761
0.00192375
0.00175855
0.00158436
0.00140999
0.00122437
0.000712265
0.00077611
0.00095078
0.00117942
0.00140215
0.00159188
0.00174468
0.00187007
0.00198137
0.00209988
0.00223907
0.00241717
0.00266101
0.00291667
0.00314263
0.00328771
0.00331427
0.00326665
0.00315458
0.0030034
0.00284392
0.00268919
0.00253887
0.00239077
0.00224041
0.00208245
0.00191373
0.00173608
0.00155847
0.00135895
0.000733285
0.00072493
0.000817236
0.000995536
0.00120777
0.00141114
0.00159083
0.00174759
0.00189367
0.00205117
0.00223493
0.00246905
0.00277761
0.0030869
0.0033463
0.00350347
0.00352759
0.00347192
0.00335232
0.00319208
0.00302444
0.00286137
0.00270264
0.00254826
0.00239334
0.00223248
0.00206266
0.0018825
0.00170109
0.00149133
0.000816102
0.000762497
0.000768265
0.000870247
0.00103674
0.00123111
0.00142337
0.00160458
0.00178293
0.0019779
0.00220559
0.0025045
0.00287886
0.00324329
0.00353282
0.00369852
0.00371982
0.00365679
0.00353146
0.00336438
0.00319064
0.0030201
0.00285507
0.00269578
0.0025375
0.00237473
0.00220435
0.0020227
0.00183795
0.00161992
0.000965975
0.000883076
0.000834982
0.000835314
0.000928104
0.0010803
0.00126299
0.00145579
0.00165942
0.00188844
0.00216002
0.00252637
0.00296932
0.00338511
0.00370063
0.00387205
0.00389096
0.00382213
0.00369311
0.00352178
0.00334329
0.00316617
0.00299713
0.00283443
0.00267385
0.00251055
0.00233895
0.00215734
0.0019697
0.00174433
0.00118984
0.00108677
0.000998682
0.000932713
0.000921634
0.000995231
0.00113482
0.00131817
0.00153422
0.00179067
0.00210669
0.00253688
0.00304812
0.0035107
0.00384795
0.00402301
0.00404088
0.00396844
0.00383801
0.00366489
0.0034831
0.00330197
0.0031301
0.0029653
0.00280327
0.00263952
0.00246767
0.00228659
0.0020967
0.00186582
0.0014903
0.00137346
0.00124971
0.00113114
0.00103675
0.001006
0.00106811
0.00121107
0.00142038
0.00169332
0.00205386
0.00254486
0.00311304
0.00361787
0.00397281
0.00415008
0.00416901
0.00409575
0.00396642
0.00379352
0.00361007
0.00342827
0.00325517
0.00308951
0.00292711
0.0027628
0.00259124
0.00241104
0.00221898
0.00198386
0.00183735
0.00171256
0.00156807
0.00140977
0.00125248
0.00112824
0.0010856
0.00115564
0.00133305
0.00160955
0.00200732
0.00254606
0.00315839
0.00370756
0.00407275
0.00425147
0.00427411
0.0042034
0.00407782
0.00390703
0.00372582
0.0035452
0.00337264
0.00320741
0.00304571
0.00288127
0.00271051
0.00253259
0.00233743
0.00209841
0.00222013
0.00208864
0.00193156
0.00174499
0.00154227
0.00134437
0.0012004
0.00116814
0.00128809
0.00155084
0.00197132
0.00254085
0.0031856
0.003774
0.00414424
0.00432455
0.00435371
0.00428994
0.00417061
0.00400592
0.00382883
0.00365192
0.00348194
0.00331866
0.00315827
0.00299512
0.00282599
0.00265191
0.00245304
0.00220994
0.00262101
0.00248455
0.00231714
0.00211371
0.00187937
0.00162715
0.00139829
0.00126292
0.00128724
0.00151685
0.00194039
0.00253241
0.0031999
0.00381268
0.00418219
0.00436526
0.00440411
0.00435182
0.00424276
0.00408664
0.00391677
0.00374555
0.00358107
0.00342147
0.00326424
0.00310359
0.00293775
0.00276886
0.0025664
0.00231907
0.00301839
0.00287962
0.00270662
0.00249377
0.00223818
0.00194757
0.00165394
0.00142583
0.00135135
0.00150401
0.00191948
0.00252223
0.0031961
0.00380137
0.00417861
0.00436679
0.00441894
0.00438255
0.00428836
0.00414427
0.00398529
0.00382077
0.00366283
0.0035103
0.00336008
0.00320599
0.00304772
0.00288402
0.00267775
0.00242612
0.00338733
0.00324999
0.00307706
0.00286053
0.00259237
0.00227664
0.00193751
0.00163615
0.00147042
0.00153718
0.00189875
0.00248875
0.00314631
0.00374483
0.0041226
0.00431755
0.00438678
0.00437036
0.00429643
0.00417078
0.00402602
0.00387355
0.00372524
0.0035798
0.00343633
0.00329221
0.00314477
0.00298902
0.00278254
0.00252949
0.00370014
0.00356867
0.00340195
0.00318645
0.00291393
0.00258486
0.00221758
0.00186451
0.00162083
0.0015983
0.00191039
0.00244448
0.00306761
0.00362605
0.00399411
0.0041975
0.00428875
0.0042941
0.00424678
0.00414785
0.00402542
0.00389166
0.00375825
0.00362491
0.00349271
0.00336005
0.00322384
0.00307735
0.00287732
0.00262612
0.00392268
0.00380404
0.00364891
0.00344131
0.00317327
0.00284182
0.00246148
0.00207686
0.0017742
0.00167272
0.00189461
0.00236837
0.00291719
0.00341295
0.00376231
0.003977
0.00409253
0.00412338
0.00410801
0.0040437
0.00395248
0.00384673
0.00373685
0.00362444
0.00351061
0.00339438
0.0032713
0.00313682
0.00294956
0.00270698
0.00404436
0.00392898
0.00378495
0.0035959
0.00334254
0.00301817
0.00263716
0.0022382
0.00189574
0.00172358
0.001823
0.00220727
0.00266455
0.00308836
0.00340853
0.0036349
0.00376959
0.00382783
0.00384756
0.00382282
0.00376967
0.00370019
0.00362294
0.00354037
0.00345341
0.00336171
0.00326187
0.00314557
0.00297594
0.00275134
0.00405524
0.00394629
0.00381252
0.00363766
0.00340272
0.00309236
0.00272292
0.00232785
0.00196729
0.0017342
0.00171711
0.00196586
0.00233233
0.00269295
0.00298096
0.00320863
0.00334926
0.00343023
0.00347953
0.00348753
0.00346801
0.00343242
0.00338926
0.00333977
0.00328388
0.00322218
0.00315176
0.0030654
0.00292388
0.00272486
0.00395196
0.00386056
0.00374281
0.0035832
0.00336199
0.00307478
0.002737
0.00237534
0.00203386
0.00177814
0.00168023
0.00179965
0.00206298
0.00236866
0.00262533
0.002835
0.00296688
0.00305187
0.00310982
0.00313004
0.00312446
0.00310364
0.00307656
0.00304572
0.00301174
0.00297377
0.00292787
0.00286617
0.00276476
0.00259561
0.0037635
0.00370081
0.00360631
0.00346911
0.0032793
0.00303888
0.00276456
0.00247452
0.00219834
0.0019754
0.00185422
0.00188902
0.00205896
0.00228849
0.0025046
0.0026748
0.0027824
0.00285436
0.00290055
0.00291351
0.00290298
0.0028781
0.00284698
0.00281299
0.00277711
0.00273882
0.002695
0.00263852
0.00255382
0.00241243
0.00357515
0.00354977
0.00349287
0.00339779
0.0032608
0.00308728
0.00289192
0.00268969
0.00249661
0.00233208
0.00222286
0.00221973
0.00231696
0.00246837
0.00262375
0.00274525
0.00282249
0.00287652
0.00290734
0.00291266
0.00289914
0.00287376
0.00284237
0.00280791
0.00277024
0.00272788
0.00267883
0.00261564
0.00252655
0.00239161
0.00340674
0.00339724
0.00338436
0.00334534
0.00327549
0.00317489
0.00305469
0.00292827
0.00280367
0.00269066
0.00260647
0.00258851
0.00263369
0.00271832
0.00280756
0.0028817
0.00293028
0.00296656
0.00298805
0.00299505
0.00299132
0.0029815
0.0029691
0.00295567
0.00293883
0.00291716
0.00288849
0.00284391
0.00277682
0.00267575
0.00330624
0.00331366
0.00331817
0.0033045
0.00327152
0.00322427
0.00315912
0.00308601
0.00301076
0.00294056
0.0028848
0.00285977
0.00286807
0.00289968
0.0029355
0.00297132
0.00299843
0.00301801
0.00303325
0.00304447
0.00305367
0.00306275
0.0030728
0.00308351
0.00309373
0.00310099
0.00310746
0.00309951
0.00308088
0.00304488
0.000208062
0.000218423
0.000216972
0.000212549
0.000206075
0.000198466
0.000190382
0.000182259
0.000174348
0.000166856
0.000159838
0.000153425
0.0001476
0.000142613
0.000138512
0.000135566
0.000133588
0.000132749
0.000133156
0.0001342
0.000134387
0.000132305
0.000126989
0.000118148
0.000106024
9.11537e-05
7.98234e-05
0.000363348
0.000369192
9.45687e-05
0.000822456
0.000971506
0.000994407
0.000959196
0.000905215
0.000850208
0.000799698
0.000754873
0.000715416
0.000681135
0.000650452
0.000623688
0.000598419
0.000577264
0.00055722
0.000539928
0.000519503
0.000503877
0.000495293
0.00049489
0.000498651
0.000500171
0.000487904
0.000457802
0.000410068
0.000356013
0.000316846
0.000382642
0.000347553
0.00039452
0.00129264
0.00155103
0.00164916
0.00165085
0.00160594
0.00154545
0.00148226
0.00142176
0.00136583
0.00131597
0.00127102
0.00123232
0.00119621
0.00116646
0.00113748
0.00110937
0.00107005
0.00103258
0.000999687
0.00097545
0.000958963
0.000941681
0.000908367
0.000849864
0.000758832
0.000649198
0.000553277
0.000505522
0.000475225
0.000586726
0.00157961
0.001919
0.00207556
0.0021183
0.00210755
0.00206467
0.00201011
0.00195309
0.00189803
0.0018486
0.00180525
0.00177072
0.0017409
0.0017181
0.00169389
0.00166522
0.00161458
0.0015564
0.0014957
0.00144266
0.00139909
0.00135905
0.00130211
0.00121277
0.00108538
0.000929992
0.000780556
0.000664286
0.000595236
0.000671232
0.00171805
0.00205784
0.00227371
0.00239987
0.00243953
0.00242699
0.0023928
0.00235115
0.00230857
0.00227126
0.00224186
0.00222478
0.00221455
0.00221128
0.00220205
0.00217957
0.00212144
0.00204203
0.00195337
0.00187113
0.00179964
0.00173469
0.00165625
0.00154392
0.00138944
0.00120041
0.00100899
0.000845096
0.000730993
0.000749746
0.00178647
0.00211318
0.00236113
0.00252744
0.00261908
0.00265708
0.00265436
0.0026368
0.0026155
0.00259985
0.0025947
0.00260596
0.00262745
0.00265399
0.00266675
0.00265358
0.00258752
0.00248556
0.00236849
0.00225794
0.00216072
0.00207306
0.00197635
0.00184643
0.00167291
0.00146028
0.00123795
0.00103824
0.000885501
0.000857801
0.00178751
0.00210094
0.00236955
0.00257105
0.00270363
0.00277987
0.00281408
0.00282751
0.0028345
0.00284912
0.00287741
0.0029279
0.00299133
0.00305653
0.00309592
0.00309141
0.00301526
0.00288895
0.00274346
0.0026059
0.00248537
0.00237796
0.00226587
0.00212296
0.00193725
0.00170965
0.00146463
0.00123821
0.00105515
0.000991366
0.00168837
0.00198036
0.00227173
0.00251696
0.00269379
0.00281187
0.00288635
0.002936
0.00297895
0.00303104
0.00310089
0.00320165
0.00331622
0.00342766
0.00349659
0.00349653
0.00340715
0.00325507
0.00308189
0.00291913
0.00277793
0.00265377
0.00252827
0.00237616
0.00218339
0.00194754
0.0016888
0.00144235
0.00123569
0.00114382
0.00154029
0.00180305
0.00210426
0.00237942
0.00259774
0.00276269
0.00288139
0.00297376
0.00305845
0.00315564
0.00327471
0.00343787
0.00361155
0.00377393
0.00387207
0.0038714
0.00376461
0.00358665
0.00338769
0.00320211
0.00304303
0.00290507
0.00276804
0.002609
0.00241288
0.00217398
0.00191081
0.00164941
0.00142332
0.00130938
0.00138256
0.00159484
0.00188796
0.00218489
0.00244008
0.0026454
0.00280808
0.00294894
0.00308156
0.00323162
0.0034098
0.00364753
0.00388442
0.00409934
0.00422324
0.00421741
0.00408847
0.00388657
0.00366467
0.00345949
0.00328526
0.0031361
0.00298901
0.00282459
0.0026271
0.00239068
0.00212425
0.00185393
0.00161509
0.00148364
0.00124917
0.00138812
0.00164761
0.0019509
0.00223473
0.00247825
0.00268454
0.0028707
0.00305569
0.00326629
0.00351239
0.00382899
0.00413984
0.00440383
0.00454912
0.00453415
0.00438036
0.00415788
0.00391691
0.0036957
0.0035092
0.00335058
0.00319486
0.00302615
0.00282848
0.00259579
0.00232964
0.00205546
0.00180895
0.00166329
0.00116602
0.00122363
0.00142093
0.00170362
0.00200033
0.00227497
0.00252232
0.00275537
0.00299497
0.00326711
0.00359011
0.00399419
0.00437932
0.0046886
0.0048486
0.00482068
0.00464219
0.00440404
0.00414825
0.00391508
0.00371936
0.00355137
0.00338891
0.00321685
0.00301976
0.00278986
0.00252798
0.00225417
0.00200275
0.00184492
0.00115065
0.00113548
0.00125194
0.00148214
0.00176506
0.00205514
0.00233609
0.00261431
0.00290995
0.00324763
0.00365152
0.00415096
0.00460179
0.0049548
0.005119
0.00507587
0.00487611
0.00462843
0.00436249
0.00412146
0.00391907
0.00374139
0.00357417
0.00339956
0.00320348
0.00297634
0.00272011
0.00245164
0.00219712
0.00202731
0.0012254
0.00115408
0.00118868
0.00133967
0.00157116
0.00184827
0.00214627
0.00246202
0.00281143
0.00321528
0.00371017
0.00429609
0.00480285
0.00518841
0.00535608
0.00529861
0.00508424
0.00483407
0.00456283
0.00431819
0.0041107
0.00392586
0.00375394
0.0035766
0.00338143
0.00315771
0.00290758
0.00264609
0.00239284
0.00220992
0.00141691
0.00130825
0.00126953
0.00131589
0.00147307
0.00169525
0.00198139
0.00231716
0.00271203
0.00318351
0.00377748
0.00442216
0.00497846
0.00538889
0.00555607
0.00548777
0.00526818
0.00502283
0.00475143
0.00450728
0.00429587
0.00410653
0.00393041
0.00375219
0.00355698
0.00333639
0.00309228
0.00283849
0.00258891
0.00239221
0.00173252
0.00160135
0.00151167
0.00146965
0.00150089
0.0016412
0.00187691
0.00220224
0.00262524
0.00316838
0.00383437
0.00452129
0.00513317
0.00555161
0.00571458
0.00564175
0.00542816
0.00519449
0.00492896
0.00468865
0.00447522
0.00428377
0.00410613
0.00392811
0.00373315
0.00351498
0.00327631
0.00302966
0.00278355
0.00257433
0.00215676
0.00201183
0.00188524
0.00177495
0.00170277
0.00171062
0.00184954
0.00214113
0.00257532
0.00316813
0.00387054
0.00459107
0.00526147
0.00566793
0.00582626
0.00575763
0.00556203
0.00534618
0.00509353
0.00486001
0.0046473
0.00445609
0.00427976
0.00410399
0.00391323
0.00369618
0.00346233
0.00321948
0.00297496
0.00275576
0.00265278
0.00249774
0.00234304
0.00218179
0.00202784
0.00192253
0.00192822
0.00212158
0.00254563
0.00315455
0.00388617
0.00463407
0.00531831
0.00572641
0.00588434
0.00583011
0.00566411
0.00547215
0.00523902
0.00501594
0.00480824
0.0046172
0.00444392
0.00427488
0.00409146
0.00388224
0.00365038
0.00340794
0.00316314
0.00293497
0.00317363
0.00300923
0.0028319
0.0026332
0.0024202
0.00222508
0.00211671
0.00218444
0.0025295
0.00313743
0.00388625
0.00464535
0.00530829
0.00571707
0.00588007
0.00585067
0.00572345
0.00556143
0.00535426
0.00514704
0.00494877
0.00476377
0.00459245
0.00442556
0.004251
0.00405622
0.00383407
0.00359168
0.00334571
0.00310875
0.00367399
0.00350007
0.0033045
0.00307846
0.00282425
0.00256481
0.0023616
0.00231354
0.00255358
0.00309611
0.0038237
0.00456532
0.00522422
0.00562731
0.00580136
0.00580595
0.00572308
0.00559653
0.00542138
0.0052368
0.0050546
0.00488008
0.00471571
0.00455491
0.00438696
0.00419877
0.00399166
0.00375988
0.00351549
0.00327078
0.00411581
0.0039327
0.00372292
0.0034774
0.00319511
0.00289178
0.00261868
0.00247627
0.0025839
0.00306353
0.00372015
0.00444001
0.00504719
0.00544147
0.00563254
0.00567798
0.00564023
0.00555318
0.00541497
0.00525834
0.00509807
0.00494135
0.00479117
0.00464248
0.0044854
0.00430612
0.00410873
0.00389055
0.00365617
0.00341115
0.00446885
0.00427844
0.00405881
0.00380032
0.00349974
0.00316748
0.0028448
0.00261992
0.00260766
0.00298182
0.00357203
0.00421248
0.00476312
0.00514572
0.00535908
0.00544956
0.00545153
0.00540524
0.00530532
0.00518253
0.00505098
0.00491877
0.00478988
0.00466042
0.00452146
0.00435821
0.004175
0.00397354
0.00375251
0.00351575
0.00470904
0.00451621
0.00429247
0.00402762
0.00371713
0.00336742
0.00301092
0.00272058
0.00260418
0.0028188
0.003318
0.00388094
0.0043802
0.00475251
0.00498524
0.00511664
0.00515457
0.00514526
0.00508503
0.00499706
0.00489665
0.00479261
0.00468956
0.00458471
0.00447002
0.00433405
0.00416859
0.00398595
0.00378629
0.00356437
0.00482207
0.00463465
0.0044148
0.00415237
0.00384175
0.00348677
0.00311332
0.00278016
0.002583
0.00263341
0.00299542
0.00348517
0.0039509
0.00431672
0.00456413
0.00472491
0.00478993
0.00480944
0.00478228
0.00472379
0.00464975
0.00456985
0.00448958
0.00440743
0.00431666
0.00420804
0.00407343
0.00390929
0.0037279
0.00352579
0.00480813
0.00463817
0.00443456
0.00418765
0.00389147
0.00354945
0.00318399
0.00284195
0.00259941
0.00253236
0.00274789
0.00314025
0.00356941
0.00393163
0.00418269
0.00435496
0.00443276
0.00446954
0.00446197
0.0044215
0.00436293
0.00429627
0.00422809
0.00415817
0.00408153
0.00399081
0.00387915
0.00374255
0.00357565
0.00338029
0.0046941
0.00455773
0.00438823
0.00417563
0.00391382
0.00360918
0.0032835
0.00297341
0.00273424
0.00260778
0.00270719
0.00299154
0.00334788
0.00368757
0.00392587
0.00408737
0.00416238
0.00420328
0.00420155
0.00416819
0.00411563
0.00405285
0.0039867
0.00391807
0.00384363
0.00375753
0.0036542
0.00352968
0.00337782
0.00317955
0.00454806
0.0044578