/*--------------------------------*- C++ -*----------------------------------*\
| =========                 |                                                 |
| \\      /  F ield         | OpenFOAM: The Open Source CFD Toolbox           |
|  \\    /   O peration     | Version:  5.0                                   |
|   \\  /    A nd           | Web:      www.OpenFOAM.org                      |
|    \\/     M anipulation  |                                                 |
\*---------------------------------------------------------------------------*/
FoamFile
{
    version     2.0;
    format      ascii;
    class       volScalarField;
    location    "1250/air";
    object      epsilon;
}
// * * * * * * * * * * * * * * * * * * * * * * * * * * * * * * * * * * * * * //

dimensions      [0 2 -3 0 0 0 0];

internalField   nonuniform List<scalar> 
243000
(
2.27362
3.02802
3.43779
3.71071
3.85167
3.88938
3.84798
3.74683
3.59866
3.4141
3.19831
2.96015
2.70412
2.44864
2.208
2.00591
1.85138
1.89962
1.76566
1.62118
1.49593
1.35966
1.2897
1.11429
0.227457
0.199564
0.173343
0.150302
0.122402
0.11223
1.14919
1.46189
1.57659
1.61634
1.60347
1.55809
1.49156
1.41241
1.32589
1.23593
1.1442
1.05375
0.966219
0.88725
0.819847
0.770382
0.738456
0.720626
0.714338
0.699957
0.674013
0.634175
0.57686
0.516187
0.449636
0.381321
0.318715
0.254422
0.193494
0.174261
1.38822
1.76353
1.92177
1.98812
1.98511
1.9395
1.86554
1.77418
1.67221
1.56517
1.45591
1.34923
1.24775
1.15918
1.08732
1.04033
1.01586
1.00898
1.00353
0.98779
0.953414
0.89812
0.822778
0.733784
0.638026
0.540673
0.447115
0.354644
0.268764
0.213259
1.41322
1.83901
2.06909
2.17896
2.20667
2.18036
2.11704
2.02951
1.92652
1.81541
1.70047
1.58853
1.4835
1.39539
1.32894
1.29402
1.28555
1.29328
1.29527
1.27807
1.23375
1.16209
1.06567
0.95182
0.828824
0.702898
0.580006
0.460875
0.353538
0.273671
1.30524
1.74914
2.03772
2.20921
2.2871
2.29575
2.25687
2.18604
2.09399
1.98985
1.87963
1.77222
1.67319
1.59491
1.54301
1.52885
1.54306
1.56967
1.58122
1.56284
1.50796
1.4195
1.30252
1.16563
1.01782
0.866002
0.716479
0.571363
0.443598
0.343315
1.10811
1.55962
1.89388
2.11972
2.24953
2.30271
2.2987
2.25454
2.18328
2.09516
1.99834
1.9038
1.81903
1.75883
1.72975
1.74394
1.78591
1.8345
1.85676
1.83722
1.77156
1.66642
1.52986
1.37169
1.20168
1.02701
0.85393
0.685441
0.536832
0.417374
0.913516
1.32887
1.67138
1.93963
2.11848
2.21953
2.2573
2.24842
2.20432
2.13911
2.06297
1.98818
1.92461
1.88966
1.89071
1.93959
2.01323
2.08569
2.11919
2.09845
2.02209
1.90082
1.74578
1.56816
1.3783
1.18363
0.990073
0.800853
0.631725
0.494219
0.740724
1.10856
1.44433
1.71824
1.92455
2.06791
2.14832
2.17799
2.16803
2.13201
2.08049
2.0308
1.99423
1.99041
2.02826
2.11682
2.22487
2.32217
2.36694
2.34503
2.25835
2.12179
1.94954
1.75424
1.54673
1.33459
1.1234
0.916002
0.727479
0.572908
0.626806
0.899957
1.22249
1.50318
1.7226
1.88187
1.99298
2.0589
2.08452
2.08087
2.05881
2.0376
2.03216
2.06506
2.14459
2.2767
2.42117
2.54336
2.59914
2.57614
2.47978
2.329
2.14095
1.9297
1.70658
1.47926
1.25284
1.02978
0.823512
0.652788
0.608039
0.735246
1.00884
1.28787
1.52163
1.69944
1.82764
1.91104
1.96746
1.99548
2.0046
2.01457
2.04332
2.11692
2.24194
2.4204
2.60246
2.74897
2.81525
2.79133
2.68612
2.52246
2.32015
2.09463
1.85777
1.61732
1.37777
1.14164
0.918624
0.732983
0.744445
0.684499
0.834219
1.0781
1.31825
1.51481
1.66317
1.7663
1.83752
1.88773
1.92557
1.96707
2.0322
2.14928
2.32263
2.54909
2.76898
2.93877
3.01497
2.99035
2.87735
2.70227
2.48735
2.2493
2.00047
1.74867
1.49797
1.24985
1.01221
0.812913
0.941153
0.828184
0.776039
0.908729
1.12153
1.32762
1.49614
1.62098
1.71016
1.7746
1.83084
1.90084
2.00259
2.16564
2.38869
2.66371
2.92075
3.11258
3.19799
3.17307
3.05347
2.86861
2.64285
2.39407
2.13494
1.87335
1.61322
1.354
1.10385
0.892748
1.17147
1.06083
0.906724
0.853836
0.966785
1.14919
1.32806
1.47355
1.58289
1.66415
1.73321
1.82223
1.95838
2.16697
2.44155
2.76481
3.05753
3.27026
3.36411
3.33937
3.21451
3.02163
2.78693
2.52927
2.26151
1.99167
1.72261
1.45383
1.1932
0.971294
1.43093
1.32773
1.17463
0.979868
0.921049
1.01315
1.17065
1.32666
1.45508
1.55475
1.63896
1.7382
1.90363
2.15671
2.48239
2.8526
3.17908
3.41132
3.51303
3.48914
3.3605
3.16146
2.91982
2.65521
2.38046
2.10363
1.82668
1.54941
1.2801
1.0484
1.72096
1.62013
1.46965
1.26609
1.04379
0.974437
1.05172
1.19038
1.3291
1.44612
1.54698
1.65946
1.84261
2.13736
2.51201
2.92694
3.28491
3.53524
3.64442
3.62222
3.49143
3.28818
3.04172
2.77199
2.49206
2.2094
1.92567
1.64076
1.36448
1.12408
2.04382
1.93805
1.78327
1.57364
1.29293
1.07264
1.01111
1.08489
1.21211
1.33995
1.45708
1.58471
1.77861
2.11025
2.53081
2.98737
3.37433
3.64139
3.75793
3.73838
3.60711
3.40189
3.15267
2.88008
2.59688
2.30943
2.01979
1.72802
1.4464
1.19839
2.40088
2.28281
2.11633
1.8961
1.61614
1.2962
1.08035
1.03757
1.1173
1.24074
1.37007
1.51343
1.71936
2.07734
2.53916
3.0331
3.44638
3.72901
3.85316
3.83736
3.70776
3.50272
3.25315
2.97974
2.69475
2.40391
2.1094
1.81156
1.52601
1.27141
2.79323
2.65608
2.47119
2.23359
1.93938
1.58283
1.25337
1.07021
1.06164
1.15618
1.28835
1.44573
1.66521
2.03986
2.53538
3.06302
3.49991
3.79716
3.92976
3.91955
3.79358
3.59113
3.3434
3.07136
2.78607
2.49326
2.19497
1.89188
1.60361
1.34334
3.22108
3.05855
2.8492
2.58826
2.27222
1.89702
1.49929
1.18721
1.06007
1.09584
1.2159
1.38245
1.61529
1.99832
2.52102
3.076
3.53349
3.84504
3.98764
3.98478
3.8649
3.66735
3.42381
3.15484
2.87123
2.57801
2.27717
1.96971
1.67961
1.41448
3.68401
3.49027
3.25119
2.96205
2.61951
2.22621
1.78603
1.37474
1.12027
1.06873
1.15751
1.32514
1.56928
1.95355
2.49507
3.07287
3.54708
3.87146
4.0262
4.03284
3.9218
3.73173
3.49483
3.2308
2.95075
2.65906
2.3572
2.04626
1.75481
1.48531
4.18261
3.95165
3.67792
3.35645
2.98499
2.5696
2.09514
1.61138
1.23869
1.08169
1.11827
1.27592
1.52739
1.91211
2.45801
3.05072
3.54173
3.87842
4.04479
4.06349
3.96436
3.78505
3.55686
3.30007
3.02558
2.73741
2.43614
2.12274
1.83009
1.55657
4.71882
4.4455
4.13251
3.77667
3.38704
2.9356
2.42215
1.87863
1.40518
1.13642
1.10294
1.23812
1.49128
1.87538
2.41065
3.00955
3.51183
3.86266
4.04405
4.07635
3.99273
3.82711
3.61061
3.36366
3.09705
2.81452
2.51573
2.20103
1.90673
1.6291
5.31054
4.98749
4.62967
4.24869
3.82152
3.32488
2.76485
2.16576
1.60763
1.23046
1.1146
1.215
1.46247
1.84367
2.35827
2.94915
3.45707
3.82036
4.01805
4.06822
4.00245
3.85555
3.65484
3.42128
3.16569
2.89164
2.59777
2.28334
1.98655
1.70401
5.93331
5.60038
5.23541
4.79971
4.29852
3.74047
3.12491
2.47011
1.83835
1.36126
1.15555
1.2079
1.44332
1.81975
2.31696
2.8777
3.37755
3.74962
3.96376
4.03435
3.98963
3.86437
3.68418
3.46892
3.22915
2.96787
2.68275
2.37135
2.07166
1.78314
6.57421
6.24501
5.84546
5.35963
4.78724
4.17171
3.50536
2.7988
2.10134
1.53248
1.23357
1.22718
1.44021
1.81038
2.29624
2.83476
3.31782
3.68481
3.90957
3.99785
3.97316
3.86389
3.69853
3.50061
3.28113
3.0381
2.76725
2.46464
2.165
1.86987
7.12345
6.77228
6.35013
5.8359
5.25672
4.62183
3.92633
3.17984
2.42474
1.77017
1.37432
1.29893
1.48556
1.85026
2.33002
2.85463
3.32698
3.69079
3.92127
4.02102
4.01318
3.91861
3.76469
3.57431
3.35944
3.12269
2.86244
2.57623
2.27878
1.97525
7.58213
7.21484
6.80904
6.33847
5.79237
5.1695
4.46952
3.70154
2.90188
2.16889
1.67198
1.51611
1.6726
2.04026
2.52703
3.0483
3.51196
3.86926
4.09814
4.20202
4.20052
4.11092
3.95931
3.76786
3.54961
3.30956
3.04742
2.76247
2.4588
2.13847
8.37155
7.99462
7.58911
7.14137
6.63608
6.05905
5.39914
4.65557
3.85269
3.07064
2.48066
2.24378
2.37434
2.76441
3.27994
3.80673
4.25288
4.58849
4.795
4.87769
4.85451
4.74243
4.56641
4.34831
4.10177
3.83197
3.541
3.22787
2.89003
2.52072
10.0727
9.73764
9.41571
9.09579
8.7553
8.36198
7.88522
7.30986
6.6453
5.93541
5.34356
5.07852
5.20192
5.61576
6.13992
6.63257
7.00716
7.26247
7.38595
7.39037
7.28841
7.10019
6.84878
6.55305
6.22375
5.85291
5.45627
5.04102
4.59444
4.0989
17.5201
17.4974
17.5972
17.678
17.7088
17.6646
17.5195
17.2762
16.9437
16.4573
16.0092
15.7507
15.7125
15.8752
16.088
16.3159
16.4658
16.5809
16.6419
16.6711
16.6638
16.629
16.5676
16.4781
16.3516
16.0227
15.6313
15.2645
14.8066
14.2167
4.12506
5.70788
6.64988
7.26976
7.62091
7.76235
7.73973
7.59
7.33794
7.00794
6.6149
6.18555
5.73249
5.29763
4.9029
4.58569
4.3326
4.12113
3.91489
3.66924
3.33529
2.89178
2.36018
1.8062
1.29784
0.878555
0.171557
0.150239
0.127691
0.531566
2.77439
3.38411
3.81856
4.09563
4.23308
4.26372
4.20867
4.08994
3.92549
3.73002
3.51595
3.29544
3.07898
2.88121
2.71648
2.59695
2.5148
2.45302
2.39512
2.31354
2.17178
1.94921
1.65388
1.31807
0.987795
0.696672
0.428588
0.277908
0.300348
0.248144
2.43891
2.92216
3.26503
3.48077
3.5881
3.61232
3.56913
3.47372
3.34063
3.18265
3.01106
2.83735
2.67132
2.52652
2.41396
2.34433
2.30571
2.28049
2.25338
2.2035
2.09957
1.91917
1.66553
1.36875
1.06424
0.780047
0.538166
0.36398
0.315926
0.300355
2.18434
2.62804
2.96049
3.17168
3.28377
3.31962
3.29476
3.22203
3.11457
2.98392
2.84062
2.69639
2.56083
2.44838
2.36933
2.33256
2.32192
2.31827
2.30501
2.26426
2.16948
2.00374
1.76721
1.48386
1.18503
0.895872
0.642631
0.446309
0.345534
0.293827
1.90862
2.33313
2.68065
2.90814
3.03845
3.0923
3.08812
3.03814
2.95549
2.85097
2.73444
2.61796
2.51113
2.42962
2.38244
2.37673
2.39199
2.40718
2.40425
2.36683
2.27357
2.11111
1.8811
1.60394
1.30735
1.01428
0.750122
0.533741
0.398656
0.317972
1.57561
1.99799
2.37762
2.63328
2.78637
2.86253
2.88034
2.8544
2.79729
2.71968
2.63107
2.54387
2.46804
2.41943
2.40607
2.43279
2.47427
2.50803
2.51471
2.47872
2.38325
2.21967
1.99167
1.71784
1.42303
1.12864
0.856436
0.6253
0.465728
0.362722
1.18927
1.61242
2.03081
2.32676
2.5104
2.61147
2.65345
2.65344
2.62325
2.57383
2.51484
2.45906
2.41707
2.40447
2.42728
2.48808
2.55672
2.60903
2.625
2.58981
2.4906
2.32371
2.09536
1.82339
1.53103
1.23601
0.959015
0.717286
0.539766
0.418798
0.889617
1.26552
1.67257
1.99768
2.21201
2.33972
2.40718
2.43328
2.43127
2.41115
2.38324
2.36094
2.35569
2.38136
2.44279
2.53898
2.63534
2.70589
2.73073
2.69613
2.5926
2.42136
2.19142
1.92079
1.63017
1.33606
1.05698
0.808195
0.616992
0.481226
0.671099
0.973422
1.34653
1.68559
1.92194
2.06461
2.1508
2.20066
2.22504
2.23438
2.23866
2.25149
2.28451
2.35067
2.45267
2.58496
2.70891
2.79692
2.83002
2.79578
2.6878
2.51185
2.27976
2.01028
1.72136
1.42934
1.15016
0.897057
0.695409
0.547638
0.564628
0.743588
1.05968
1.39062
1.64642
1.81158
1.91004
1.96796
2.01236
2.04909
2.08522
2.13371
2.20586
2.31475
2.45834
2.62653
2.77713
2.88151
2.92187
2.88766
2.77532
2.59473
2.36058
2.09202
1.80532
1.51621
1.23849
0.983584
0.774062
0.616822
0.567346
0.616853
0.827938
1.12066
1.38254
1.57192
1.68961
1.75831
1.80594
1.86236
1.92841
2.01172
2.12324
2.27614
2.46151
2.66453
2.84001
2.95938
3.00564
2.97099
2.85451
2.66962
2.43498
2.16696
1.88291
1.59735
1.32206
1.06719
0.852609
0.688157
0.642557
0.624086
0.691676
0.898126
1.14109
1.3419
1.48241
1.568
1.6242
1.68832
1.77512
1.88992
2.04016
2.23731
2.46355
2.69976
2.89782
3.03017
3.08084
3.04522
2.92468
2.73682
2.50213
2.23564
1.95494
1.67352
1.40137
1.14769
0.930713
0.761225
0.767591
0.729811
0.709182
0.772285
0.944794
1.13414
1.28746
1.39203
1.46478
1.53741
1.6326
1.77258
1.96028
2.20054
2.46586
2.73289
2.95077
3.09367
3.1472
3.10998
2.98572
2.79653
2.56239
2.2986
2.02219
1.74536
1.47685
1.22529
1.00794
0.835575
0.942508
0.901257
0.853776
0.806085
0.844136
0.971891
1.11579
1.23246
1.32343
1.40742
1.51022
1.66452
1.88659
2.16787
2.46961
2.76443
2.9991
3.14991
3.20473
3.16506
3.03799
2.8491
2.6162
2.35639
2.08522
1.81336
1.54889
1.3002
1.08405
0.910772
1.17168
1.12495
1.06631
0.974982
0.892598
0.89747
0.987067
1.09647
1.19744
1.29405
1.40696
1.57028
1.82144
2.14066
2.47548
2.79489
3.04321
3.19934
3.25398
3.21101
3.08189
2.89324
2.66392
2.40948
2.14435
1.87789
1.61792
1.3727
1.15905
0.986252
1.46033
1.4033
1.32742
1.21399
1.06531
0.94986
0.932857
0.996441
1.08998
1.19426
1.31925
1.49413
1.76661
2.11982
2.48394
2.82499
3.08405
3.24311
3.29619
3.24925
3.11791
2.93185
2.70658
2.45843
2.19996
1.93941
1.68436
1.44314
1.23294
1.06159
1.78355
1.71296
1.62402
1.49356
1.31478
1.11449
0.977757
0.953399
1.01122
1.11107
1.24537
1.43534
1.72364
2.1046
2.49591
2.85619
3.12355
3.28353
3.3339
3.28163
3.15141
2.96599
2.74547
2.50413
2.25285
1.99866
1.74894
1.51256
1.30602
1.13654
2.14627
2.0574
1.95329
1.80437
1.60443
1.35523
1.11867
0.983369
0.972998
1.05002
1.18748
1.39284
1.69363
2.09598
2.51354
2.89151
3.16549
3.32478
3.37124
3.31755
3.1858
2.9993
2.78333
2.54874
2.30472
2.05705
1.81272
1.5818
1.37881
1.21122
2.55147
2.44211
2.31688
2.14899
1.92759
1.64477
1.33615
1.09181
0.986699
1.01884
1.14882
1.36473
1.67817
2.09654
2.54176
2.9371
3.21697
3.375
3.41879
3.36151
3.22716
3.03885
2.82568
2.5968
2.35912
2.11718
1.87777
1.65224
1.4524
1.28629
3.00542
2.87537
2.7275
2.53829
2.29139
1.97614
1.61168
1.27302
1.06233
1.02161
1.1305
1.35178
1.67977
2.1226
2.59153
3.00535
3.29213
3.44827
3.48885
3.42708
3.28779
3.09695
2.88507
2.65786
2.42261
2.1842
1.94954
1.72774
1.52962
1.36372
3.51984
3.3706
3.20068
2.98847
2.71159
2.35953
1.94326
1.52247
1.20508
1.0762
1.14404
1.3681
1.7245
2.18804
2.68468
3.12147
3.41736
3.57184
3.60857
3.53882
3.3913
3.19255
2.97613
2.74668
2.51057
2.27266
2.03923
1.81794
1.6182
1.4484
4.1161
3.95084
3.76402
3.52714
3.21766
2.82412
2.35339
1.85394
1.43029
1.20184
1.21298
1.44139
1.83243
2.3378
2.87027
3.3397
3.64823
3.80378
3.83423
3.74892
3.5845
3.37001
3.13792
2.89493
2.64836
2.40259
2.16301
1.93499
1.72677
1.54814
4.83602
4.66016
4.4659
4.20616
3.86604
3.43129
2.9033
2.32158
1.78652
1.44439
1.38403
1.61807
2.06753
2.65263
3.26465
3.78619
4.11519
4.27524
4.29384
4.18033
3.97742
3.72223
3.44796
3.16719
2.88859
2.61685
2.35527
2.1065
1.87677
1.67866
5.76611
5.59873
5.39645
5.12576
4.76936
4.3077
3.73148
3.06787
2.41238
1.93683
1.78918
2.0364
2.59021
3.32689
4.0941
4.72516
5.09629
5.26061
5.24653
5.06873
4.78257
4.43704
4.06947
3.70158
3.34554
3.00788
2.68935
2.39218
2.1173
1.87703
7.12141
6.96143
6.76653
6.51343
6.18208
5.73962
5.16035
4.44978
3.68845
3.06971
2.82084
3.10817
3.85201
4.86681
5.92454
6.75301
7.20856
7.37702
7.28381
6.95966
6.48765
5.93749
5.36699
4.80885
4.28044
3.79242
3.34581
2.93915
2.56449
2.23416
9.3758
9.25753
9.12597
8.96412
8.74828
8.4401
7.98628
7.36557
6.62507
5.95671
5.65897
6.06467
7.14519
8.63025
10.167
11.2926
11.8487
11.9716
11.6733
11.0308
10.1683
9.19544
8.20643
7.25331
6.36178
5.54764
4.81247
4.15002
3.54348
3.00692
13.7458
13.7489
13.7937
13.8744
13.9936
14.0958
14.0667
13.8742
13.5314
13.2032
13.1734
13.9334
15.5263
17.6444
19.7526
21.1895
21.8032
21.7571
21.034
19.7916
18.2146
16.4712
14.6966
12.9803
11.3558
9.85041
8.47713
7.22375
6.06004
5.0184
22.8858
23.0906
23.5
24.0909
24.8932
25.7943
26.5871
27.2202
27.7292
28.3138
29.1871
30.6812
32.8566
35.4623
37.8182
39.3248
39.8942
39.5863
38.3517
36.4204
34.0103
31.3227
28.5262
25.7617
23.0348
20.3793
17.8457
15.4226
13.0686
10.883
37.2983
37.7128
38.7927
40.2316
41.9984
43.693
45.0573
46.0902
47.0122
48.2962
50.0524
52.3173
54.7782
57.2399
58.9918
59.9297
60.231
59.7954
58.5376
56.6382
54.2608
51.5593
48.6947
45.8076
42.7388
39.5373
36.2152
32.7664
29.1809
25.6666
42.6078
43.0479
44.6151
46.3909
47.7709
48.5659
48.949
49.1445
49.474
50.261
51.8293
54.0248
56.1455
57.8857
58.5578
58.4685
58.3578
57.9042
57.0892
55.9638
54.6317
53.205
51.8343
50.5171
49.208
47.8295
46.2808
44.5285
42.6812
40.7643
6.48186
8.73877
9.94419
10.8009
11.307
11.5213
11.5059
11.314
10.9823
10.5464
10.0237
9.45067
8.83617
8.23768
7.67479
7.19535
6.76859
6.41904
6.15712
5.89886
5.46636
4.75077
3.77988
2.70973
1.72729
0.957899
0.755835
0.149954
0.130274
0.617852
4.03329
4.77546
5.24719
5.57931
5.75738
5.80312
5.74208
5.60152
5.40446
5.16848
4.9079
4.63458
4.36274
4.10479
3.88132
3.69914
3.55614
3.46508
3.4554
3.46885
3.37598
3.08725
2.61171
2.02198
1.41254
0.86716
0.491923
0.289263
0.319473
0.27728
3.62471
4.20054
4.60106
4.86008
4.9878
5.01104
4.94767
4.81724
4.63901
4.42855
4.19909
3.96238
3.73297
3.52467
3.35282
3.22386
3.12915
3.08024
3.10356
3.15585
3.12628
2.93305
2.56054
2.06186
1.52225
1.00993
0.607361
0.372452
0.330541
0.304556
3.34885
3.87457
4.28183
4.55377
4.69716
4.73579
4.69004
4.57757
4.41741
4.22503
4.01371
3.79604
3.58812
3.4065
3.26431
3.16605
3.09729
3.06936
3.10155
3.15345
3.1339
2.96632
2.63657
2.18631
1.67655
1.17204
0.745737
0.462271
0.341502
0.291977
3.06006
3.53337
3.96767
4.27937
4.45914
4.52657
4.50694
4.41823
4.28084
4.11065
3.92118
3.72571
3.54314
3.39051
3.27895
3.21134
3.16856
3.16171
3.19884
3.24211
3.21607
3.05535
2.74412
2.31783
1.82731
1.32816
0.885908
0.563259
0.382751
0.302336
2.73471
3.15749
3.61273
3.96394
4.18498
4.28773
4.29888
4.2394
4.13049
3.98889
3.82814
3.66308
3.51263
3.39546
3.31971
3.28645
3.27407
3.29035
3.33314
3.3656
3.32483
3.15848
2.85334
2.44146
1.96561
1.47309
1.02188
0.670467
0.447602
0.336488
2.32998
2.73222
3.2055
3.59318
3.85451
3.99446
4.0391
4.0142
3.9397
3.83332
3.70906
3.58265
3.47321
3.39862
3.36465
3.3706
3.39246
3.4339
3.48332
3.50451
3.44496
3.26583
2.95945
2.5557
2.09112
1.60615
1.15214
0.780434
0.5262
0.387357
1.83748
2.22211
2.72094
3.15927
3.46462
3.64353
3.72507
3.73843
3.70395
3.63918
3.55885
3.47929
3.41974
3.39461
3.40778
3.45752
3.51631
3.58416
3.64026
3.64979
3.5691
3.37296
3.06125
2.66112
2.20531
1.72834
1.27521
0.891354
0.61305
0.449427
1.4128
1.74405
2.22995
2.68305
3.01964
3.24222
3.36497
3.41884
3.42816
3.41038
3.38069
3.35578
3.35359
3.38393
3.44878
3.54571
3.64365
3.73747
3.79919
3.79598
3.69264
3.47685
3.15729
2.75832
2.30969
1.84105
1.3914
1.00084
0.704914
0.519705
1.08136
1.32605
1.76238
2.2114
2.56905
2.81818
2.97347
3.07049
3.12322
3.15542
3.18172
3.21815
3.27793
3.36967
3.4897
3.63594
3.77412
3.89179
3.95683
3.93902
3.81213
3.57557
3.24715
2.84799
2.40555
1.94554
1.50109
1.10761
0.799832
0.59629
0.859116
0.994971
1.34195
1.76279
2.12851
2.40064
2.58615
2.71289
2.80352
2.8859
2.9706
3.07241
3.1983
3.35666
3.53339
3.73004
3.90773
4.04554
4.11048
4.07576
3.92476
3.6678
3.33045
2.93075
2.49412
2.04291
1.60489
1.21147
0.896212
0.677692
0.739924
0.788547
1.01263
1.36304
1.71502
2.00154
2.21348
2.36955
2.49421
2.61444
2.7569
2.92551
3.12118
3.34811
3.58284
3.83003
4.04458
4.19739
4.25801
4.20375
4.02805
3.75334
3.40722
3.00738
2.57668
2.13426
1.7035
1.31238
0.992688
0.76306
0.708058
0.705292
0.816753
1.05281
1.35387
1.63614
1.86609
2.04849
2.20485
2.36167
2.54998
2.78421
3.05306
3.34568
3.64117
3.93798
4.18488
4.34636
4.39804
4.32156
4.12139
3.83227
3.47794
3.07881
2.65437
2.22056
1.79757
1.41054
1.08885
0.851252
0.747447
0.721614
0.763464
0.881035
1.08603
1.32844
1.55797
1.7585
1.94227
2.13302
2.36135
2.65632
2.99964
3.35979
3.71211
4.0562
4.32924
4.49243
4.53043
4.42915
4.20591
3.903
3.54297
3.14584
2.72805
2.30278
1.88796
1.50653
1.18453
0.941303
0.861672
0.826326
0.827321
0.858738
0.955653
1.11287
1.3091
1.51049
1.71309
1.93337
2.19969
2.54784
2.96423
3.39057
3.79913
4.18768
4.47949
4.63745
4.65721
4.52907
4.28462
3.96818
3.60383
3.20975
2.799
2.38231
1.9758
1.60124
1.27967
1.03239
1.05574
1.01053
0.988166
0.967929
0.963701
1.02172
1.14451
1.31828
1.52455
1.76675
2.06977
2.4646
2.94458
3.44102
3.90697
4.33697
4.63977
4.78664
4.78368
4.62771
4.3629
4.03269
3.66417
3.27346
2.86968
2.46111
2.06269
1.6951
1.3743
1.12398
1.33254
1.26998
1.22679
1.17198
1.10439
1.05875
1.08419
1.19716
1.38476
1.63866
1.97602
2.41223
2.94238
3.5177
4.04305
4.51191
4.81859
4.95024
4.92015
4.73613
4.4505
4.10645
3.73224
3.34309
2.94441
2.54294
2.15308
1.78947
1.46899
1.21596
1.69883
1.60813
1.53755
1.45126
1.33727
1.2126
1.13297
1.15697
1.30305
1.55612
1.9174
2.38806
2.98343
3.63222
4.21989
4.72645
5.03178
5.14572
5.08556
4.87276
4.56427
4.20756
3.82506
3.43174
3.03361
2.63702
2.25118
1.88742
1.56532
1.30867
2.16416
2.03455
1.92623
1.80287
1.64635
1.45918
1.28739
1.20704
1.2788
1.51553
1.8915
2.40664
3.07416
3.80266
4.45956
5.00594
5.30785
5.40388
5.3117
5.06801
4.73376
4.35941
3.96651
3.56921
3.1644
2.75867
2.36587
1.99479
1.66674
1.40425
2.74348
2.56562
2.40937
2.23983
2.03604
1.79132
1.53901
1.35904
1.33721
1.52913
1.92621
2.51125
3.2461
4.06372
4.80312
5.39698
5.69812
5.77914
5.65382
5.37616
5.01032
4.61394
4.20054
3.78101
3.35485
2.92898
2.51261
2.12227
1.78038
1.50762
3.46039
3.22718
3.01484
2.79068
2.53243
2.22814
1.90093
1.62516
1.50716
1.64741
2.06893
2.72606
3.55829
4.48264
5.32993
5.98694
6.29769
6.37083
6.21206
5.90152
5.49598
5.04635
4.57897
4.10743
3.63523
3.1661
2.71239
2.29101
1.92225
1.62818
4.35471
4.0624
3.79009
3.50769
3.19234
2.82735
2.42717
2.05901
1.84577
1.91964
2.37157
3.13354
4.11366
5.19707
6.19943
6.94377
7.28992
7.36912
7.18268
6.80578
6.31125
5.75812
5.18648
4.61727
4.05862
3.51641
2.99947
2.5252
2.11299
1.78244
5.5004
5.15069
4.82359
4.48999
4.127
3.71152
3.24773
2.79499
2.49051
2.49357
2.99142
3.91023
5.12259
6.46401
7.71297
8.60505
9.00725
9.08109
8.82097
8.31754
7.66292
6.93231
6.18277
5.44689
4.7404
4.07209
3.44997
2.8867
2.39729
2.0043
7.04693
6.65425
6.29433
5.93907
5.56308
5.13501
4.64497
4.14089
3.76904
3.7201
4.29961
5.46234
7.02327
8.76531
10.39
11.4876
11.9561
12.0005
11.604
10.8848
9.96116
8.93438
7.88779
6.87204
5.91481
5.02972
4.22408
3.50582
2.88358
2.37664
9.31648
8.92328
8.58688
8.27952
7.97221
7.62514
7.21113
6.7621
6.42204
6.40655
7.14187
8.66315
10.7292
13.0245
15.171
16.5206
17.0529
17.0147
16.3825
15.3129
13.9592
12.4583
10.9307
9.45555
8.07781
6.82033
5.68998
4.69008
3.82019
3.10421
13.0363
12.7322
12.5254
12.3914
12.3087
12.2277
12.1014
11.946
11.8776
12.1406
13.178
15.1705
17.856
20.7972
23.521
25.0992
25.6591
25.447
24.458
22.8837
20.9187
18.7363
16.4998
14.3244
12.2809
10.4067
8.71029
7.1933
5.84865
4.71895
19.6973
19.6568
19.7075
19.916
20.2926
20.7481
21.1957
21.6426
22.1942
23.082
24.6459
27.1696
30.4321
33.8872
36.9599
38.5624
39.0421
38.5493
37.1447
35.0192
32.4055
29.4937
26.4545
23.4328
20.5147
17.7602
15.1848
12.7915
10.5771
8.64008
31.1603
31.4123
32.0187
32.8772
33.8732
34.9648
36.0331
37.1043
38.3268
39.9701
42.2074
45.2042
48.7381
52.175
54.8703
55.8695
55.9735
55.1127
53.4545
51.1074
48.3089
45.2192
41.9498
38.5901
35.137
31.6581
28.1775
24.7125
21.2755
18.0548
44.9544
45.2531
46.4263
47.9388
49.4851
50.8384
51.9417
52.9662
54.2445
56.1915
58.9457
62.2174
65.4524
67.925
69.0063
68.2641
67.3973
66.0212
64.3889
62.4458
60.4085
58.382
56.4199
54.4714
52.3303
49.6954
46.6471
43.232
39.4801
35.5988
47.0122
47.8822
49.5726
51.3832
52.8144
53.6753
54.1146
54.4512
55.0859
56.4357
58.703
61.4962
63.9876
65.4318
65.1405
63.2001
61.6558
59.957
58.3858
56.8883
55.6033
54.5738
53.8439
53.303
52.779
52.12
51.1518
49.8235
48.2536
46.4731
9.29688
12.1674
13.5307
14.4726
15.043
15.2748
15.2331
14.9826
14.5662
14.0241
13.3662
12.6328
11.8222
11.0106
10.2166
9.5115
8.87993
8.52526
8.59452
8.8015
8.57746
7.62818
6.03989
4.17497
2.43662
1.10929
0.172137
0.147485
0.587992
0.675309
5.56603
6.39095
6.84041
7.15876
7.3408
7.38483
7.30882
7.14041
6.90451
6.61782
6.29465
5.94307
5.58394
5.22815
4.90999
4.62815
4.4096
4.3604
4.60534
4.96439
5.07495
4.74514
4.02038
3.07245
2.04551
1.10753
0.452319
0.244475
0.308625
0.291717
5.09216
5.63194
5.99621
6.24394
6.37071
6.39222
6.31757
6.16321
5.94727
5.6837
5.3865
5.06557
4.74412
4.43946
4.1779
3.95962
3.79832
3.78862
4.03025
4.38315
4.54981
4.36249
3.84322
3.05862
2.17397
1.32049
0.638824
0.330963
0.291056
0.294395
4.79999
5.23759
5.61928
5.9022
6.0629
6.11389
6.06712
5.93566
5.73734
5.48651
5.199
4.8863
4.57736
4.29487
4.06144
3.87563
3.74477
3.76528
4.00111
4.31772
4.47718
4.32465
3.86285
3.17282
2.35638
1.5347
0.824272
0.422397
0.298304
0.280313
4.47485
4.84149
5.26074
5.60975
5.83303
5.93264
5.92541
5.82473
5.65108
5.41913
5.14719
4.84809
4.55901
4.30181
4.0957
3.94297
3.84839
3.90694
4.1421
4.42098
4.55004
4.39889
3.95623
3.30833
2.53285
1.73167
1.00837
0.53007
0.328647
0.28347
4.0722
4.38877
4.84358
5.26095
5.55645
5.71406
5.75141
5.68994
5.54978
5.34797
5.10161
4.83233
4.56946
4.34436
4.17486
4.06243
4.01665
4.1213
4.36199
4.60416
4.69091
4.51763
4.07466
3.44484
2.69571
1.91078
1.18377
0.653717
0.384318
0.304392
3.61794
3.88068
4.36498
4.84066
5.20056
5.41666
5.50357
5.48941
5.39193
5.23021
5.02331
4.7907
4.57415
4.39202
4.26839
4.2063
4.22152
4.37884
4.62826
4.83356
4.8704
4.65925
4.20336
3.57829
2.84584
2.07443
1.34844
0.785807
0.461616
0.345868
3.09048
3.3211
3.82733
4.34614
4.76047
5.03294
5.17423
5.21188
5.16689
5.05657
4.90142
4.72199
4.562
4.43592
4.36783
4.36777
4.45373
4.66836
4.92538
5.09196
5.07194
4.81278
4.33561
3.70729
2.98474
2.22498
1.50319
0.920554
0.554369
0.403396
2.51974
2.72791
3.23307
3.77785
4.24175
4.56972
4.76722
4.86136
4.87655
4.82857
4.73808
4.62719
4.5359
4.47709
4.47328
4.54653
4.71221
4.98415
5.24331
5.36747
5.28363
4.97057
4.46718
3.83091
3.11403
2.36461
1.64905
1.0547
0.657511
0.473532
2.02407
2.18459
2.65589
3.19812
3.67932
4.04413
4.29633
4.45194
4.5316
4.55482
4.54102
4.51306
4.50303
4.51963
4.58982
4.74547
4.99796
5.32162
5.57342
5.64906
5.49655
5.12695
4.59507
3.94853
3.23455
2.49478
1.78696
1.18731
0.767539
0.553673
1.6149
1.71153
2.11853
2.63185
3.1141
3.5035
3.79496
4.00147
4.14898
4.24912
4.32341
4.38968
4.46957
4.5713
4.72274
4.96976
5.31137
5.67568
5.90777
5.92694
5.70305
5.27783
4.71741
4.06018
3.34793
2.61721
1.91817
1.3179
0.882029
0.641783
1.3008
1.33233
1.6483
2.10409
2.56849
2.96977
3.2921
3.54497
3.74998
3.92974
4.09954
4.26672
4.44647
4.64
4.87934
5.22511
5.65203
6.04058
6.23961
6.19247
5.89691
5.42174
4.83364
4.16664
3.4562
2.73398
2.04409
1.44645
0.998984
0.736252
1.08365
1.06166
1.277
1.64653
2.06875
2.46535
2.8089
3.10262
3.36386
3.61431
3.88258
4.15615
4.43776
4.73416
5.06794
5.51724
6.01843
6.41042
6.56252
6.44129
6.07632
5.55856
4.9446
4.26978
3.56143
2.8469
2.16622
1.57267
1.11632
0.835496
0.956526
0.902196
1.03066
1.29737
1.64893
2.01836
2.36908
2.69421
3.00769
3.32808
3.68347
4.07312
4.46301
4.86444
5.29838
5.8521
6.40872
6.78126
6.87336
6.67408
6.24483
5.68731
5.05303
4.37239
3.66603
2.95872
2.28765
1.69623
1.23308
0.937546
0.933148
0.857777
0.920611
1.08721
1.34719
1.6602
1.99575
2.33857
2.69615
3.08189
3.52195
4.02426
4.52905
5.04208
5.58248
6.2367
6.82302
7.15432
7.17558
6.89768
6.41245
5.81862
5.16626
4.47967
3.77518
3.07659
2.41051
1.81744
1.3487
1.04111
1.00207
0.921866
0.930834
1.02346
1.19146
1.42109
1.71271
2.05236
2.44128
2.88684
3.41557
4.00565
4.64547
5.28141
5.93546
6.68083
7.26716
7.5405
7.48162
7.12975
6.59535
5.97271
5.29944
4.60592
3.90443
3.20479
2.53603
1.93774
1.46322
1.14534
1.18726
1.09822
1.07465
1.09845
1.1689
1.31709
1.53869
1.84951
2.25433
2.75662
3.35464
4.04439
4.83016
5.60223
6.37832
7.20051
7.75777
7.96201
7.81919
7.40047
6.82076
6.17351
5.49437
4.78117
4.0616
3.34707
2.66497
2.05875
1.57732
1.24943
1.50648
1.39206
1.33449
1.30382
1.29425
1.33412
1.47356
1.74261
2.14375
2.68039
3.34114
4.17409
5.10787
6.03314
6.94177
7.82363
8.32857
8.45937
8.23676
7.75733
7.13547
6.47147
5.77174
5.02367
4.25756
3.50775
2.80271
2.18376
1.69301
1.35451
1.97146
1.81307
1.71072
1.6269
1.54988
1.49896
1.53164
1.71545
2.09693
2.66253
3.44882
4.41679
5.51427
6.61769
7.67364
8.59893
9.03967
9.10231
8.81424
8.28327
7.62359
6.9248
6.15809
5.33744
4.5016
3.69755
2.95837
2.31937
1.81485
1.46371
2.59945
2.3792
2.21938
2.07789
1.93596
1.80393
1.73743
1.82901
2.1767
2.80095
3.70294
4.82311
6.1079
7.42598
8.6522
9.6108
9.99493
10.0105
9.69075
9.10012
8.37337
7.56266
6.67781
5.75135
4.82746
3.94296
3.15134
2.47963
1.95299
1.58541
3.41838
3.12223
2.89491
2.69146
2.48605
2.27887
2.12555
2.12055
2.43426
3.12117
4.16065
5.47831
6.99829
8.57616
10.0114
11.0109
11.3742
11.3968
11.0359
10.3073
9.4547
8.4597
7.40008
6.32539
5.27454
4.2966
3.42509
2.69711
2.13154
1.73465
4.4777
4.09951
3.80268
3.54044
3.27915
3.00785
2.77679
2.69021
2.96873
3.72807
4.9521
6.53776
8.37741
10.2712
11.9872
13.0722
13.4952
13.4755
12.9756
12.0976
11.0074
9.75254
8.44466
7.15712
5.93385
4.81376
3.8378
3.02737
2.39389
1.93929
5.87246
5.42018
5.06763
4.76609
4.47303
4.16447
3.88127
3.7396
3.99998
4.86577
6.33759
8.27982
10.5489
12.8742
14.9672
16.1613
16.6037
16.4908
15.7917
14.6955
13.2739
11.6672
10.0187
8.43045
6.95826
5.63627
4.49435
3.5474
2.80305
2.25645
7.79633
7.30242
6.93434
6.64046
6.36811
6.08119
5.80992
5.67533
5.97675
7.00235
8.8022
11.2114
14.0214
16.8884
19.4488
20.7154
21.1216
20.8471
19.9221
18.4751
16.6329
14.5747
12.4819
10.4812
8.65218
7.02721
5.62645
4.45974
3.52454
2.82082
10.6527
10.1873
9.88096
9.67694
9.51585
9.35918
9.22666
9.23315
9.71
10.9839
13.1806
16.1415
19.5817
23.0269
26.0846
27.2858
27.5649
27.0429
25.8142
23.967
21.6437
19.0579
16.434
13.9084
11.5923
9.52481
7.72086
6.18752
4.92035
3.93747
15.2134
14.9192
14.7795
14.7686
14.8402
14.97
15.1575
15.5217
16.3643
18.015
20.6418
24.142
28.1769
32.0955
35.4948
36.3228
36.3062
35.4285
33.8685
31.6656
28.9353
25.8783
22.7535
19.6791
16.7961
14.149
11.7592
9.64421
7.81022
6.32265
22.5235
22.4606
22.6326
23.0077
23.522
24.0976
24.7414
25.5957
26.9393
29.069
32.0923
35.9759
40.3573
44.391
47.5936
47.4123
46.5116
44.965
43.1321
40.8799
38.3064
35.407
32.2051
28.887
25.6452
22.4729
19.4181
16.5317
13.8514
11.5293
33.1032
33.2003
33.7528
34.5567
35.477
36.4715
37.5373
38.8355
40.6669
43.1866
46.4815
50.4625
54.7192
58.1438
59.9296
57.4067
55.3671
53.126
51.1565
49.1225
47.1232
45.1217
43.0927
40.9511
38.35
35.372
32.1374
28.7418
25.2641
21.959
43.315
43.7814
44.8299
46.0486
47.2006
48.2106
49.1433
50.2575
51.9483
54.527
57.899
61.691
65.352
67.2264
66.6928
61.8858
58.7538
55.9308
53.8766
52.2359
51.0661
50.2703
49.7431
49.3136
48.6666
47.4762
45.6501
43.2229
40.2759
37.0791
43.3367
44.5341
46.1903
47.8347
49.1418
50.0241
50.6546
51.3897
52.6636
54.8073
57.7923
61.124
63.7735
64.3703
61.8744
55.8766
52.1875
49.1322
47.0666
45.6024
44.8886
44.7778
45.1946
45.8905
46.5772
46.9641
46.8355
46.2065
45.2029
43.9662
12.7392
16.2369
17.7325
18.6086
19.1417
19.3096
19.1729
18.804
18.2466
17.5399
16.6794
15.7059
14.6079
13.4892
12.3772
11.3801
10.5574
10.5478
11.7686
13.3119
13.7015
12.4402
9.88968
6.79421
3.83551
1.53358
0.163246
0.144032
0.606398
0.694383
7.37768
8.238
8.63472
8.86666
9.01066
9.02658
8.91702
8.70641
8.41857
8.06577
7.66301
7.20986
6.73808
6.24928
5.80335
5.37957
5.0826
5.22512
6.1021
7.18837
7.66165
7.25376
6.17592