/*--------------------------------*- C++ -*----------------------------------*\
| =========                 |                                                 |
| \\      /  F ield         | OpenFOAM: The Open Source CFD Toolbox           |
|  \\    /   O peration     | Version:  5.0                                   |
|   \\  /    A nd           | Web:      www.OpenFOAM.org                      |
|    \\/     M anipulation  |                                                 |
\*---------------------------------------------------------------------------*/
FoamFile
{
    version     2.0;
    format      ascii;
    class       volScalarField;
    location    "1250/air";
    object      k;
}
// * * * * * * * * * * * * * * * * * * * * * * * * * * * * * * * * * * * * * //

dimensions      [0 2 -2 0 0 0 0];

internalField   nonuniform List<scalar> 
243000
(
0.0562814
0.0664075
0.0704961
0.0724159
0.0725438
0.071433
0.0694824
0.0669763
0.0640873
0.0609454
0.0575982
0.0541256
0.0505482
0.0470559
0.0437993
0.0410824
0.0390472
0.0392278
0.0380359
0.0365618
0.0351548
0.0334937
0.0324108
0.0300724
0.0286516
0.0266761
0.0246875
0.022937
0.020047
0.0199807
0.083036
0.097468
0.102489
0.104194
0.103632
0.10166
0.0987377
0.0952055
0.0912701
0.0870878
0.0827188
0.0782964
0.0738949
0.0698077
0.0662204
0.0635217
0.061746
0.0608761
0.0604255
0.0595941
0.0581192
0.055815
0.0525255
0.0487275
0.0445021
0.0399413
0.0354529
0.030372
0.0253009
0.0235563
0.0941888
0.110451
0.116948
0.119611
0.119481
0.117635
0.114616
0.110833
0.106537
0.101934
0.0971266
0.0923161
0.0876215
0.083417
0.0799234
0.0775921
0.0763598
0.0760119
0.0757467
0.0749618
0.0732277
0.0703844
0.0664011
0.0615282
0.0560592
0.0502014
0.0442217
0.0378814
0.0314861
0.0269727
0.0953474
0.113595
0.122857
0.12715
0.128215
0.127183
0.124698
0.121227
0.117081
0.112526
0.107717
0.102928
0.0983308
0.0943864
0.0913518
0.0897286
0.0893237
0.0896777
0.0897792
0.0889995
0.0869499
0.0835692
0.0788938
0.0731774
0.0667319
0.0597875
0.0525921
0.0451106
0.0377969
0.0318537
0.0904754
0.109889
0.121629
0.128337
0.13132
0.131637
0.130134
0.127385
0.123773
0.119624
0.115155
0.110714
0.106538
0.103173
0.100904
0.100266
0.100871
0.102026
0.102538
0.101763
0.0993902
0.0954864
0.090182
0.0837567
0.0765213
0.0687092
0.060549
0.052061
0.0439685
0.0370517
0.0811864
0.101839
0.115865
0.12487
0.129893
0.131914
0.131745
0.130038
0.127271
0.123811
0.119954
0.116127
0.112636
0.110116
0.108875
0.109446
0.11118
0.113189
0.114118
0.113341
0.11065
0.106252
0.100383
0.09335
0.0854731
0.0769772
0.0680626
0.0587785
0.0499304
0.0422057
0.0714028
0.0915488
0.106642
0.117723
0.124823
0.128737
0.130173
0.129815
0.128095
0.12554
0.122528
0.119531
0.116947
0.1155
0.115513
0.117469
0.120409
0.123285
0.124621
0.123835
0.120841
0.115985
0.109609
0.102054
0.0936477
0.0846104
0.0751135
0.0652027
0.0556522
0.0472391
0.0620872
0.0811575
0.0967698
0.108602
0.117112
0.122829
0.125968
0.127104
0.126695
0.12527
0.123224
0.12123
0.119743
0.119557
0.121032
0.124501
0.128689
0.132421
0.134141
0.133344
0.130068
0.124797
0.117968
0.109966
0.101121
0.0916529
0.0817088
0.0713092
0.0611418
0.0521288
0.0554889
0.0706534
0.0866142
0.0993619
0.108783
0.115359
0.11984
0.122444
0.123433
0.123266
0.122369
0.121498
0.121248
0.122512
0.125596
0.130672
0.136132
0.140686
0.142763
0.141954
0.138425
0.132783
0.125557
0.11717
0.107963
0.0981532
0.0878639
0.0770948
0.0664081
0.0568672
0.0542466
0.0617184
0.0762252
0.0896592
0.100169
0.107794
0.113127
0.116521
0.11878
0.119879
0.120215
0.120578
0.121681
0.124537
0.129346
0.136091
0.142826
0.148152
0.150556
0.149739
0.145987
0.140025
0.132456
0.123742
0.114237
0.104159
0.0936039
0.0825746
0.0714242
0.0614323
0.0619518
0.0587166
0.0671265
0.0796581
0.0910553
0.0998585
0.106247
0.110568
0.113496
0.115531
0.117039
0.118672
0.121227
0.125783
0.132406
0.140848
0.148833
0.154877
0.157578
0.15676
0.152822
0.146588
0.138731
0.129748
0.120003
0.109714
0.0989627
0.0877058
0.0761916
0.0658183
0.0724603
0.0664881
0.0638397
0.0710509
0.0817688
0.0914731
0.0990252
0.104427
0.108196
0.110871
0.11317
0.11599
0.120033
0.126398
0.134877
0.145012
0.1542
0.160906
0.163876
0.163067
0.158981
0.152528
0.14444
0.135243
0.125308
0.114857
0.103964
0.0925032
0.0807176
0.0700572
0.0838762
0.078463
0.0706326
0.0680299
0.0740278
0.0830895
0.0914777
0.0980083
0.102767
0.106224
0.10911
0.112765
0.118243
0.126419
0.136829
0.148629
0.158953
0.166275
0.169484
0.168699
0.164507
0.15789
0.149627
0.140273
0.130199
0.119631
0.1086
0.0969849
0.0850091
0.0741028
0.0958729
0.0911698
0.0839766
0.0744282
0.0715614
0.076361
0.084101
0.0913918
0.0971654
0.10152
0.105116
0.109265
0.116011
0.125993
0.138318
0.151729
0.163113
0.171002
0.174431
0.173688
0.169434
0.162708
0.154331
0.144875
0.134711
0.124059
0.112918
0.101179
0.0890794
0.0779682
0.108451
0.104145
0.0975581
0.0882644
0.0776599
0.0743127
0.0782758
0.0850212
0.091478
0.0967369
0.101143
0.105932
0.113499
0.125209
0.139382
0.154322
0.166686
0.175096
0.178734
0.178059
0.173789
0.16701
0.15858
0.149077
0.138874
0.128168
0.116947
0.105104
0.0929428
0.0816693
0.121647
0.117392
0.11103
0.102115
0.0895434
0.0791197
0.0761798
0.079901
0.0860274
0.0919425
0.0971816
0.102717
0.110836
0.124116
0.140041
0.156406
0.16967
0.17856
0.182405
0.181826
0.177588
0.170821
0.162396
0.152911
0.142725
0.131993
0.120712
0.108784
0.0966155
0.0852215
0.135453
0.130959
0.124492
0.115674
0.103932
0.0897242
0.0795414
0.0775178
0.0814692
0.0873434
0.0932679
0.0996013
0.108346
0.122789
0.140309
0.157964
0.172048
0.181388
0.185453
0.185002
0.180858
0.174162
0.165812
0.156402
0.146272
0.135553
0.124241
0.112247
0.100117
0.0886397
0.149855
0.144895
0.138076
0.12906
0.117437
0.102535
0.0877816
0.0790833
0.0787175
0.0833204
0.0895133
0.0965948
0.106042
0.121274
0.140135
0.158967
0.173796
0.183566
0.187881
0.187614
0.183619
0.177062
0.168847
0.159575
0.149542
0.138874
0.127562
0.115525
0.103471
0.0919416
0.16481
0.159207
0.151845
0.142414
0.130554
0.115728
0.0989197
0.0847093
0.0786099
0.080383
0.0861156
0.0937403
0.103893
0.11959
0.139567
0.159382
0.174874
0.18508
0.189698
0.189669
0.185894
0.179541
0.171527
0.162436
0.152557
0.141987
0.130711
0.118655
0.106701
0.0951477
0.18026
0.173875
0.165833
0.155839
0.143568
0.128793
0.111185
0.0933993
0.081534
0.0790381
0.0833252
0.0911156
0.10189
0.117767
0.138572
0.159238
0.175296
0.185899
0.190896
0.191169
0.187694
0.181617
0.173872
0.165016
0.155344
0.144931
0.133739
0.121693
0.109848
0.0982861
0.196191
0.188895
0.180061
0.169403
0.156654
0.141749
0.1237
0.103843
0.0871722
0.0796649
0.0814215
0.0888291
0.100047
0.116084
0.137165
0.158438
0.175087
0.186098
0.191459
0.192114
0.18903
0.183325
0.175906
0.16735
0.157944
0.147748
0.136692
0.12469
0.112953
0.101393
0.212627
0.204331
0.194621
0.183279
0.17045
0.154936
0.136289
0.11505
0.0948214
0.0823259
0.0806693
0.0870498
0.0984411
0.114579
0.135371
0.156978
0.174069
0.185564
0.191412
0.192497
0.18991
0.184661
0.177657
0.169477
0.160406
0.150495
0.139638
0.127725
0.116072
0.104506
0.230052
0.220616
0.209939
0.198264
0.18474
0.168364
0.148882
0.126517
0.103736
0.0868118
0.081236
0.0859524
0.0971513
0.113268
0.133399
0.154846
0.172225
0.184178
0.190564
0.192218
0.190195
0.185555
0.179087
0.17139
0.162752
0.153217
0.142643
0.130875
0.119275
0.107672
0.247721
0.238361
0.227885
0.215053
0.199816
0.182131
0.161563
0.13813
0.113455
0.0928707
0.0832198
0.085613
0.0962868
0.112273
0.131831
0.152334
0.16955
0.181871
0.188819
0.191127
0.18977
0.185818
0.180025
0.17296
0.164903
0.155883
0.145722
0.134198
0.122644
0.110968
0.265271
0.256332
0.245273
0.231483
0.214703
0.195889
0.17444
0.150146
0.12405
0.100518
0.0869378
0.086523
0.0961392
0.111877
0.131037
0.150812
0.167548
0.179769
0.187091
0.189969
0.189245
0.185802
0.180491
0.173999
0.166653
0.158318
0.148753
0.137693
0.12629
0.114525
0.279856
0.270578
0.25921
0.245019
0.228537
0.209753
0.188157
0.163498
0.136488
0.110676
0.0934499
0.0898762
0.098145
0.113508
0.132318
0.151518
0.167862
0.179967
0.187465
0.190701
0.190511
0.18755
0.182635
0.176437
0.1693
0.161249
0.152153
0.141822
0.130673
0.118779
0.291773
0.282272
0.271584
0.258921
0.243831
0.22603
0.205149
0.18094
0.153866
0.126742
0.106521
0.0996644
0.106239
0.121171
0.139701
0.158324
0.174055
0.185745
0.193077
0.196392
0.196402
0.193642
0.188881
0.182757
0.175637
0.167627
0.158647
0.148583
0.137468
0.125231
0.311706
0.302278
0.291969
0.28037
0.266988
0.251286
0.232708
0.210842
0.185874
0.159804
0.138586
0.129492
0.134282
0.148479
0.166353
0.183727
0.197862
0.208202
0.214468
0.216984
0.216346
0.213041
0.207763
0.201108
0.193439
0.184859
0.175371
0.164859
0.153125
0.139755
0.35264
0.344778
0.337138
0.32946
0.321191
0.311508
0.299568
0.284833
0.26732
0.24794
0.231142
0.223334
0.226777
0.238521
0.253074
0.266423
0.276383
0.283092
0.286332
0.286483
0.283877
0.278996
0.27239
0.264501
0.255568
0.245307
0.234088
0.222043
0.208705
0.193383
0.510072
0.509627
0.511566
0.513134
0.513735
0.512886
0.510084
0.505361
0.498866
0.489266
0.480322
0.475096
0.474269
0.477473
0.481691
0.48622
0.489196
0.491486
0.492709
0.493301
0.493175
0.492503
0.491304
0.489539
0.487037
0.480468
0.472624
0.465214
0.455833
0.443628
0.0837113
0.10133
0.109437
0.113375
0.114327
0.113226
0.110706
0.107218
0.103043
0.0984232
0.0934855
0.0884492
0.0833953
0.0786895
0.0745207
0.0712663
0.0688073
0.0669251
0.0652086
0.0631333
0.0600335
0.0554362
0.0492687
0.0420103
0.0343964
0.0270953
0.0245848
0.022822
0.0211125
0.0213445
0.1296
0.154324
0.163208
0.164667
0.162004
0.157012
0.150777
0.143931
0.136846
0.129809
0.122935
0.116479
0.110494
0.105447
0.101418
0.0987333
0.0967116
0.0950074
0.0931224
0.0907366
0.0871902
0.0818802
0.0744034
0.0650816
0.0546881
0.0439317
0.0349853
0.0302721
0.0328925
0.0291524
0.15173
0.18054
0.193777
0.198165
0.197105
0.192914
0.186849
0.17972
0.172054
0.164294
0.156675
0.149604
0.14323
0.138184
0.134526
0.132559
0.131141
0.129594
0.127217
0.123791
0.118783
0.111698
0.102132
0.0903114
0.0769713
0.0628826
0.049839
0.0396797
0.0370452
0.0377559
0.156011
0.18781
0.206407
0.214227
0.216034
0.21383
0.209143
0.20295
0.195913
0.18859
0.181346
0.174734
0.169015
0.164927
0.1625
0.161925
0.161596
0.160506
0.157792
0.153371
0.146894
0.138134
0.126718
0.112871
0.0972688
0.0806169
0.0645355
0.050559
0.0425236
0.0393346
0.150142
0.181974
0.204538
0.217554
0.223251
0.223669
0.220952
0.216333
0.210614
0.204463
0.198367
0.193012
0.188765
0.186435
0.185966
0.187325
0.188386
0.187959
0.185053
0.179752
0.171954
0.161642
0.148648
0.133187
0.115866
0.0973272
0.0790267
0.0623528
0.0504014
0.0434129
0.135235
0.168424
0.195228
0.212204
0.221309
0.224792
0.224466
0.221872
0.217945
0.213499
0.209134
0.205669
0.203572
0.203669
0.205804
0.209482
0.212108
0.212461
0.209463
0.20337
0.194359
0.182661
0.168316
0.151558
0.132927
0.113011
0.0930924
0.0744731
0.0597877
0.0497719
0.112955
0.14684
0.178019
0.199371
0.212223
0.218847
0.221245
0.221041
0.219252
0.216924
0.214768
0.213713
0.214345
0.217518
0.222747
0.229007
0.233288
0.234454
0.231431
0.224624
0.214511
0.201576
0.186059
0.168239
0.148608
0.127709
0.106643
0.0866138
0.0699612
0.0575482
0.0918215
0.12292
0.155057
0.180424
0.197237
0.207183
0.212504
0.214916
0.215635
0.215776
0.216159
0.217969
0.221899
0.228668
0.237349
0.246358
0.252304
0.254277
0.251262
0.243817
0.23271
0.218677
0.202134
0.183435
0.163046
0.141465
0.119623
0.0985867
0.0805106
0.066162
0.0739393
0.0998208
0.130652
0.158456
0.178528
0.191402
0.199503
0.204624
0.207987
0.210846
0.21414
0.219142
0.226876
0.237685
0.25002
0.261874
0.26944
0.272175
0.269189
0.261173
0.249179
0.234178
0.216749
0.197321
0.176364
0.154333
0.132003
0.110276
0.0911666
0.0752709
0.063628
0.0798996
0.106942
0.135039
0.157646
0.173497
0.184077
0.191326
0.197185
0.202891
0.209362
0.217906
0.229891
0.244998
0.261129
0.275813
0.28491
0.288337
0.285384
0.276861
0.264088
0.248252
0.230069
0.210047
0.188675
0.166383
0.143774
0.121616
0.101778
0.084663
0.0619567
0.0674319
0.0864588
0.112023
0.13566
0.154125
0.16728
0.17667
0.184295
0.192665
0.202444
0.214834
0.231572
0.251017
0.27096
0.288345
0.298889
0.302906
0.299982
0.291014
0.277576
0.261031
0.242228
0.221744
0.200094
0.177682
0.154961
0.132606
0.1123
0.094211
0.0669041
0.0655568
0.0732712
0.092143
0.11439
0.134078
0.149622
0.161281
0.170866
0.181303
0.194052
0.210452
0.231916
0.256026
0.279718
0.299618
0.31148
0.31599
0.313085
0.30374
0.289746
0.272625
0.253341
0.23253
0.210729
0.188306
0.165633
0.143197
0.122582
0.1038
0.0771444
0.0727093
0.0719411
0.0798935
0.0964415
0.115136
0.131897
0.145613
0.157449
0.169893
0.184874
0.205272
0.231436
0.260265
0.287542
0.309728
0.322763
0.327673
0.324784
0.315128
0.30069
0.283123
0.263503
0.24251
0.220683
0.198338
0.175778
0.15337
0.132599
0.113343
0.0930017
0.0869548
0.0822948
0.0799742
0.0862577
0.0998471
0.115669
0.130509
0.144384
0.158835
0.175964
0.199784
0.230585
0.263914
0.294516
0.318734
0.332796
0.33803
0.335155
0.325257
0.310481
0.292601
0.272799
0.251775
0.230038
0.207865
0.185428
0.163162
0.142357
0.122793
0.115082
0.107771
0.100582
0.092945
0.0883957
0.092099
0.103129
0.117139
0.13206
0.148309
0.167733
0.19445
0.229556
0.267073
0.300677
0.326672
0.341632
0.347131
0.344282
0.334199
0.319188
0.301115
0.281316
0.260406
0.238855
0.216896
0.19466
0.172598
0.15187
0.132155
0.143785
0.135314
0.125536
0.114215
0.102427
0.0952662
0.0972714
0.10704
0.121233
0.138551
0.160372
0.189975
0.228469
0.269796
0.306038
0.333573
0.349326
0.355059
0.352256
0.342031
0.326846
0.30886
0.289169
0.26849
0.247218
0.225508
0.203528
0.181723
0.161139
0.14138
0.176434
0.166934
0.155536
0.141429
0.125072
0.109287
0.100402
0.102283
0.113128
0.130293
0.154043
0.186245
0.227311
0.272138
0.310609
0.339482
0.355959
0.361929
0.359205
0.348836
0.333823
0.315906
0.296447
0.276095
0.25519
0.233784
0.212113
0.190674
0.170215
0.15045
0.212749
0.202037
0.189314
0.172944
0.153316
0.131553
0.112934
0.104443
0.109085
0.124334
0.149067
0.18328
0.226293
0.274002
0.314428
0.344498
0.361662
0.367925
0.365297
0.35515
0.340247
0.322421
0.303282
0.283333
0.262837
0.241814
0.220497
0.199529
0.179167
0.159388
0.252034
0.240071
0.225821
0.207721
0.185505
0.159443
0.133213
0.114433
0.109818
0.121128
0.145467
0.181121
0.225764
0.27544
0.317633
0.348833
0.366695
0.373356
0.371032
0.361079
0.346358
0.328673
0.309899
0.290388
0.270345
0.249726
0.228813
0.208372
0.188087
0.16826
0.293539
0.280441
0.264805
0.245207
0.220715
0.191201
0.159119
0.131296
0.116756
0.120781
0.143525
0.179899
0.225738
0.276736
0.32059
0.352925
0.371577
0.378717
0.376823
0.367145
0.352642
0.335115
0.316693
0.297571
0.277951
0.257798
0.237468
0.217465
0.197165
0.177203
0.336522
0.322566
0.305855
0.284955
0.258398
0.225886
0.189108
0.153813
0.12972
0.125328
0.143602
0.179778
0.226936
0.278873
0.324107
0.357645
0.377199
0.384907
0.383594
0.374273
0.359975
0.34259
0.32438
0.305481
0.286144
0.266479
0.246706
0.227094
0.206723
0.186472
0.380342
0.365949
0.348749
0.32673
0.298424
0.263321
0.222642
0.181192
0.148376
0.135052
0.148321
0.182883
0.230987
0.28365
0.329859
0.364757
0.385352
0.393727
0.393115
0.384162
0.370058
0.352804
0.334553
0.315587
0.296292
0.276799
0.257257
0.237727
0.217151
0.196433
0.424483
0.410341
0.393421
0.370788
0.341356
0.304332
0.260532
0.213995
0.173498
0.151465
0.157781
0.190729
0.239267
0.293135
0.341431
0.378036
0.3998
0.409033
0.409156
0.400539
0.386265
0.368636
0.34969
0.330071
0.310231
0.290349
0.270416
0.250424
0.229211
0.207671
0.470645
0.457098
0.44046
0.418411
0.389123
0.351407
0.305719
0.255373
0.208402
0.178042
0.175973
0.206565
0.255952
0.312283
0.363933
0.403747
0.426998
0.437164
0.437702
0.428836
0.413649
0.394737
0.374067
0.35267
0.331137
0.309785
0.288541
0.267237
0.244542
0.221391
0.523749
0.510824
0.495009
0.474391
0.44699
0.410583
0.365316
0.313655
0.262511
0.224835
0.214447
0.240841
0.292025
0.352699
0.409416
0.453485
0.478686
0.490064
0.490444
0.479957
0.462097
0.439796
0.415496
0.390417
0.365248
0.340552
0.316356
0.292418
0.266766
0.24037
0.593261
0.582644
0.569592
0.552345
0.528538
0.496471
0.455636
0.407632
0.357723
0.317142
0.300461
0.321886
0.374057
0.440486
0.503325
0.551224
0.577614
0.588857
0.586966
0.572437
0.549111
0.52044
0.489507
0.457891
0.426429
0.395692
0.365687
0.335989
0.304925
0.272165
0.701001
0.695208
0.687381
0.676141
0.660191
0.63784
0.607734
0.571015
0.531502
0.49766
0.481578
0.499866
0.550861
0.61908
0.685238
0.733434
0.758789
0.767723
0.760939
0.739769
0.708403
0.670755
0.630156
0.588675
0.547083
0.506008
0.465642
0.425315
0.38325
0.33897
0.881587
0.88236
0.882972
0.881737
0.878031
0.869662
0.854519
0.833841
0.81081
0.791823
0.784843
0.804062
0.850063
0.911496
0.970442
1.01223
1.03376
1.03957
1.0287
1.00338
0.967358
0.924276
0.877222
0.828563
0.778211
0.726366
0.673576
0.618751
0.559793
0.497015
1.09856
1.10308
1.11663
1.13056
1.14297
1.14774
1.14323
1.13206
1.11871
1.11076
1.11289
1.1338
1.1702
1.21524
1.25376
1.28025
1.29423
1.2975
1.28842
1.26882
1.24114
1.20786
1.17138
1.13355
1.0918
1.04623
0.996382
0.940412
0.87694
0.807337
1.15651
1.16376
1.18555
1.20642
1.21809
1.21927
1.21163
1.19991
1.18914
1.18448
1.19132
1.21096
1.23626
1.26215
1.27726
1.28405
1.28866
1.28783
1.28196
1.2716
1.25827
1.24358
1.22947
1.21586
1.20199
1.18642
1.16827
1.14448
1.11712
1.08535
0.113143
0.134602
0.143108
0.147617
0.148718
0.147323
0.144194
0.139903
0.134812
0.12924
0.123318
0.117314
0.111262
0.105597
0.100449
0.0962207
0.0926405
0.089933
0.0882141
0.0866819
0.0835016
0.0772387
0.0674969
0.0551235
0.041691
0.0287876
0.0239298
0.0227417
0.0213691
0.0235548
0.177446
0.20985
0.222547
0.225382
0.222414
0.216405
0.208771
0.200337
0.19157
0.182797
0.17407
0.165637
0.157416
0.149968
0.143275
0.137684
0.132419
0.128732
0.127452
0.127648
0.126405
0.121062
0.109974
0.0937318
0.0741457
0.0541303
0.0384621
0.0324124
0.0324658
0.0322263
0.21089
0.24868
0.268372
0.275963
0.275736
0.271122
0.263837
0.254967
0.245234
0.235193
0.225072
0.215281
0.205872
0.197542
0.190257
0.184243
0.17827
0.173748
0.171604
0.170933
0.168686
0.16191
0.148579
0.128962
0.104706
0.0788844
0.0564747
0.0422736
0.0386138
0.0411853
0.224081
0.265663
0.290443
0.302591
0.306537
0.304646
0.299137
0.291307
0.282102
0.272273
0.262246
0.252584
0.243492
0.235691
0.229087
0.223696
0.217863
0.212936
0.209834
0.207796
0.203999
0.195608
0.180511
0.158637
0.131418
0.101711
0.0743283
0.0539868
0.043925
0.0431307
0.223394
0.262715
0.29263
0.312223
0.321334
0.32292
0.31994
0.314005
0.306271
0.297686
0.288855
0.280487
0.272898
0.266757
0.261784
0.257744
0.252585
0.247545
0.243529
0.239954
0.234379
0.224286
0.207694
0.184294
0.155232
0.123012
0.0921079
0.0672152
0.0515323
0.0463842
0.215353
0.251671
0.284555
0.308382
0.322554
0.328847
0.329104
0.325735
0.320221
0.313739
0.307047
0.301004
0.295969
0.292456
0.289869
0.2877
0.28356
0.278608
0.273731
0.268564
0.261123
0.24929
0.231349
0.206847
0.176662
0.142886
0.109575
0.0812824
0.0613341
0.052341
0.198842
0.233436
0.268521
0.296133
0.314518
0.324657
0.328465
0.328229
0.325569
0.321969
0.318273
0.315533
0.314022
0.313997
0.31443
0.314478
0.311587
0.306848
0.301166
0.29441
0.285068
0.271493
0.252279
0.226926
0.196082
0.161437
0.126553
0.0957685
0.0725926
0.0603718
0.171621
0.204396
0.24224
0.274746
0.297648
0.311851
0.319466
0.322776
0.323622
0.323571
0.323643
0.32516
0.328081
0.332317
0.336292
0.338734
0.337208
0.332761
0.326313
0.317995
0.30676
0.291471
0.271031
0.244978
0.213775
0.178737
0.142968
0.110463
0.0847931
0.0698501
0.143743
0.17279
0.211067
0.246185
0.272883
0.291596
0.303374
0.310652
0.31547
0.319608
0.324159
0.330907
0.339049
0.34815
0.35601
0.360946
0.360816
0.35669
0.349507
0.339655
0.326573
0.30962
0.288006
0.261346
0.229986
0.194902
0.158851
0.125171
0.0975835
0.0803655
0.11915
0.141708
0.17774
0.214176
0.243949
0.26603
0.281533
0.293172
0.30225
0.31111
0.320897
0.333786
0.347636
0.362084
0.374002
0.381494
0.382688
0.378891
0.370978
0.359632
0.344768
0.326231
0.303509
0.276314
0.244907
0.210105
0.173965
0.139603
0.110727
0.0916326
0.100955
0.114524
0.144895
0.180699
0.212506
0.237654
0.25672
0.271894
0.28516
0.299119
0.314698
0.334154
0.354497
0.374565
0.390585
0.400646
0.403063
0.399558
0.390907
0.378102
0.361549
0.341522
0.317785
0.290128
0.258756
0.224344
0.188375
0.153733
0.124044
0.103432
0.0905215
0.0957285
0.116894
0.14849
0.180477
0.207917
0.23022
0.248954
0.266287
0.284741
0.306505
0.333029
0.360183
0.385992
0.406048
0.41861
0.422136
0.418862
0.409441
0.395225
0.377083
0.355683
0.331044
0.303016
0.271751
0.237722
0.202168
0.167563
0.137365
0.115591
0.0879678
0.0872159
0.0985469
0.12173
0.150634
0.178675
0.203435
0.225475
0.246788
0.26982
0.297289
0.331201
0.365168
0.396655
0.420599
0.435558
0.440081
0.436952
0.426728
0.41115
0.391533
0.368893
0.343482
0.315179
0.284084
0.250454
0.215422
0.181166
0.150683
0.127981
0.0932719
0.0889408
0.0928434
0.105876
0.127293
0.152687
0.178176
0.202735
0.227675
0.255148
0.288372
0.329113
0.369782
0.406753
0.434399
0.451642
0.457059
0.453995
0.442936
0.426055
0.405082
0.381348
0.355289
0.326782
0.29589
0.262704
0.228253
0.194512
0.164015
0.14051
0.107687
0.101334
0.0998827
0.1036
0.115627
0.133846
0.156933
0.182288
0.210011
0.241713
0.280841
0.327018
0.374253
0.416431
0.44759
0.467022
0.473257
0.470182
0.458278
0.440165
0.417961
0.393266
0.366653
0.338089
0.307394
0.274657
0.240804
0.207694
0.177321
0.153101
0.131806
0.123978
0.119118
0.11624
0.117208
0.126192
0.14282
0.166023
0.194925
0.230516
0.274466
0.325218
0.378762
0.425804
0.460327
0.481895
0.488908
0.485779
0.473054
0.453795
0.430475
0.404915
0.377883
0.34934
0.318865
0.286537
0.253258
0.220774
0.190544
0.165716
0.165215
0.155781
0.148216
0.140566
0.133646
0.131151
0.137993
0.156006
0.184002
0.221996
0.269442
0.324219
0.383323
0.435009
0.472828
0.49654
0.504346
0.501172
0.487698
0.467393
0.443055
0.416738
0.389356
0.360853
0.330688
0.298674
0.265991
0.233834
0.203659
0.178334
0.206884
0.195319
0.184979
0.17342
0.160489
0.148799
0.144036
0.152667
0.177462
0.215871
0.265953
0.324098
0.388068
0.444308
0.48546
0.511397
0.520089
0.516955
0.502858
0.481632
0.456384
0.429394
0.401656
0.37314
0.343219
0.311709
0.279271
0.247077
0.216777
0.190928
0.255399
0.241138
0.227617
0.212343
0.194536
0.175604
0.16087
0.158233
0.175248
0.212461
0.264154
0.325753
0.393554
0.454243
0.498874
0.527227
0.536956
0.534068
0.519538
0.497563
0.471523
0.443957
0.415794
0.387188
0.357308
0.325884
0.293412
0.260765
0.230054
0.203549
0.309394
0.292033
0.274984
0.255907
0.233697
0.208891
0.185787
0.172793
0.18006
0.212005
0.264415
0.329881
0.401196
0.465876
0.514258
0.545336
0.556329
0.55404
0.539357
0.516915
0.49026
0.462275
0.433588
0.404292
0.37374
0.341641
0.308525
0.275194
0.243726
0.216334
0.367772
0.347176
0.326491
0.303587
0.277214
0.247375
0.217429
0.195489
0.192294
0.218893
0.270302
0.338952
0.412868
0.481154
0.533786
0.568003
0.580617
0.579454
0.565022
0.542695
0.515674
0.486476
0.456305
0.425413
0.393385
0.359713
0.325223
0.290851
0.258267
0.229591
0.429898
0.40628
0.382224
0.35581
0.32574
0.291638
0.256075
0.226334
0.21378
0.233118
0.28358
0.35397
0.431248
0.503804
0.561533
0.59928
0.614145
0.614844
0.601379
0.578574
0.550041
0.518464
0.485567
0.451914
0.41733
0.381377
0.344747
0.308594
0.274322
0.243876
0.495966
0.470013
0.443436
0.41442
0.381694
0.344524
0.30474
0.268719
0.248162
0.258329
0.306958
0.379535
0.461488
0.539974
0.6041
0.646429
0.663807
0.66592
0.65246
0.628064
0.596754
0.561531
0.524574
0.486833
0.448448
0.409266
0.369447
0.330458
0.293507
0.26039
0.568079
0.54119
0.513715
0.483949
0.45052
0.412357
0.370587
0.330643
0.304044
0.304978
0.349663
0.425095
0.513201
0.599269
0.670875
0.717735
0.737239
0.740108
0.725721
0.698562
0.663007
0.622489
0.579735
0.536148
0.492259
0.448189
0.404106
0.360656
0.31941
0.282008
0.652244
0.626946
0.601363
0.573826
0.542797
0.506983
0.466952
0.427195
0.398138
0.392474
0.431634
0.508168
0.60291
0.697153
0.776053
0.826337
0.847004
0.849556
0.832918
0.801607
0.760268
0.712728
0.662285
0.610862
0.55938
0.508255
0.457691
0.408153
0.360056
0.315577
0.762348
0.742377
0.722497
0.700993
0.676389
0.647385
0.614282
0.580781
0.555319
0.548268
0.581964
0.656351
0.753269
0.853169
0.936162
0.986742
1.00679
1.00754
0.987558
0.951446
0.903925
0.848927
0.790119
0.72983
0.66932
0.609195
0.549617
0.490885
0.433008
0.377361
0.9224
0.912253
0.901413
0.889197
0.874649
0.856378
0.834441
0.811953
0.795269
0.792406
0.822356
0.890226
0.982202
1.07849
1.15789
1.20272
1.21946
1.21669
1.19395
1.15508
1.10474
1.04647
0.983438
0.917924
0.850961
0.783069
0.714265
0.644435
0.573229
0.502419
1.14792
1.14643
1.14802
1.14813
1.14411
1.13564
1.12296
1.10927
1.10005
1.10262
1.13011
1.18817
1.26676
1.34687
1.40897
1.43743
1.44579
1.43784
1.4153
1.38023
1.33688
1.28778
1.23502
1.17933
1.11964
1.0553
0.986157
0.911611
0.830756
0.745733
1.36074
1.36369
1.37667
1.38832
1.3928
1.38858
1.3773
1.36395
1.35536
1.35955
1.38521
1.43284
1.49154
1.54352
1.57397
1.57429
1.5676
1.55202
1.53158
1.50623
1.47959
1.45292
1.4283
1.40432
1.37725
1.34171
1.29739
1.24311
1.17754
1.10213
1.35578
1.37053
1.39352
1.41283
1.42179
1.41896
1.40603
1.39059
1.38018
1.3829
1.40254
1.43693
1.47554
1.50337
1.50767
1.48706
1.46805
1.44573
1.42488
1.40541
1.3899
1.37916
1.37408
1.3727
1.37199
1.36914
1.36106
1.34538
1.32311
1.29292
0.143882
0.167826
0.17572
0.179411
0.179891
0.177791
0.173853
0.168705
0.162736
0.156275
0.14939
0.142346
0.135085
0.128124
0.121551
0.115897
0.111034
0.108688
0.110219
0.113228
0.112794
0.105947
0.0922969
0.073594
0.0525232
0.0319037
0.0249907
0.02236
0.0222183
0.0249816
0.228236
0.263921
0.275467
0.27775
0.273951
0.266965
0.258342
0.248944
0.23917
0.229226
0.218951
0.208487
0.197552
0.186931
0.176683
0.167519
0.159411
0.157422
0.163654
0.173559
0.179061
0.174782
0.158279
0.131602
0.098226
0.0645339
0.0396117
0.0309977
0.0306352
0.0341075
0.275313
0.315268
0.334574
0.342447
0.342211
0.337411
0.329685
0.320121
0.309376
0.297868
0.285628
0.272906
0.259626
0.246787
0.23461
0.223644
0.213757
0.210983
0.217332
0.227718
0.233554
0.228746
0.209932
0.178698
0.138181
0.0952261
0.0585525
0.0403838
0.0370653
0.0429
0.30051
0.340594
0.364796
0.378993
0.383954
0.382902
0.377645
0.369501
0.359391
0.347937
0.335409
0.322147
0.308332
0.295007
0.282515
0.271121
0.260544
0.257154
0.262562
0.271684
0.276345
0.270387
0.250206
0.216516
0.172147
0.123527
0.0788541
0.0510612
0.0419771
0.0459435
0.308172
0.343982
0.3749
0.396445
0.406947
0.410774
0.408752
0.402992
0.39461
0.384424
0.372937
0.360528
0.347606
0.335124
0.323425
0.312523
0.301987
0.298235
0.302385
0.309436
0.312088
0.304449
0.283086
0.248088
0.201793
0.149835
0.0998288
0.0640227
0.0480942
0.0490088
0.304083
0.335919
0.369004
0.395725
0.414419
0.424241
0.426057
0.423521
0.41783
0.410024
0.400804
0.390554
0.379816
0.369303
0.35927
0.349546
0.339629
0.335767
0.338519
0.343111
0.343223
0.333477
0.310881
0.275109
0.228023
0.174277
0.120978
0.0791135
0.0565817
0.0537198
0.292663
0.31997
0.354727
0.385973
0.409402
0.42394
0.431131
0.432868
0.430772
0.426402
0.420653
0.413846
0.406496
0.398949
0.391302
0.383297
0.374476
0.370685
0.371997
0.373961
0.3711
0.358956
0.335002
0.298678
0.251452
0.197129
0.141622
0.0954399
0.0674223
0.0609383
0.270669
0.294172
0.330888
0.366214
0.394449
0.414
0.425984
0.432292
0.434738
0.434828
0.433769
0.43163
0.42883
0.425113
0.420435
0.414578
0.407197
0.403628
0.40345
0.402637
0.396555
0.381815
0.356361
0.319551
0.272497
0.218078
0.161417
0.112293
0.0800279
0.070233
0.238891
0.259933
0.297756
0.336644
0.369888
0.394634
0.41173
0.423204
0.430928
0.436356
0.441292
0.445005
0.447808
0.448682
0.447412
0.444018
0.438294
0.435012
0.433261
0.429518
0.420092
0.40265
0.375596
0.338277
0.291704
0.237304
0.180376
0.12938
0.0938971
0.0811622
0.207158
0.224089
0.260975
0.301765
0.338228
0.367299
0.389694
0.406861
0.420573
0.432366
0.444206
0.454891
0.464223
0.47039
0.47289
0.472131
0.468146
0.4651
0.461649
0.454865
0.44205
0.421888
0.393185
0.355279
0.308895
0.255066
0.198484
0.146626
0.10869
0.0933685
0.178168
0.189408
0.222981
0.263845
0.302548
0.335308
0.362241
0.384719
0.404955
0.423858
0.443278
0.462121
0.47881
0.490779
0.497383
0.499342
0.497082
0.494095
0.488775
0.478855
0.462692
0.439857
0.409525
0.370942
0.324691
0.271641
0.215775
0.163842
0.124152
0.106561
0.154245
0.159061
0.186749
0.225382
0.26494
0.30058
0.331654
0.359371
0.385699
0.412242
0.440563
0.467888
0.492202
0.510353
0.521287
0.526024
0.525373
0.522186
0.51478
0.501668
0.482256
0.456859
0.424978
0.385724
0.3396
0.287334
0.232381
0.180892
0.140062
0.120479
0.137048
0.135923
0.156013
0.18969
0.228044
0.265286
0.299868
0.332591
0.365128
0.399011
0.436862
0.472972
0.505133
0.529541
0.544943
0.552529
0.553269
0.549567
0.539842
0.523527
0.501016
0.473223
0.439892
0.400069
0.354001
0.302444
0.248479
0.197647
0.156247
0.134877
0.127543
0.122152
0.134746
0.161182
0.195486
0.232293
0.269201
0.306263
0.34478
0.3865
0.432854
0.478048
0.5181
0.548803
0.568721
0.579204
0.581036
0.576485
0.564227
0.544756
0.51933
0.489352
0.454713
0.41435
0.368257
0.317322
0.26437
0.214108
0.172519
0.149543
0.129058
0.120331
0.126197
0.144557
0.171785
0.20513
0.242205
0.282363
0.326309
0.375961
0.429395
0.483393
0.531497
0.568544
0.593062
0.606409
0.609027
0.603264
0.588338
0.565819
0.537699
0.505758
0.469975
0.429165
0.382865
0.33255
0.280269
0.230319
0.188771
0.164302
0.141043
0.131391
0.131437
0.140964
0.160822
0.187588
0.221629
0.2628
0.311545
0.367087
0.427078
0.489499
0.545702
0.589188
0.618463
0.634584
0.637682
0.63038
0.612774
0.587387
0.556818
0.52312
0.486372
0.445126
0.398722
0.348413
0.296281
0.246409
0.204956
0.179049
0.166318
0.155414
0.151476
0.153347
0.161853
0.180465
0.20973
0.249543
0.300324
0.360299
0.426087
0.496569
0.561142
0.611256
0.645532
0.664291
0.6676
0.658536
0.638399
0.610431
0.577651
0.542411
0.505072
0.463114
0.415992
0.365015
0.312396
0.262472
0.221057
0.193769
0.204274
0.191237
0.183576
0.179287
0.178623
0.185862
0.20547
0.241676
0.292671
0.355947
0.427421
0.505739
0.578446
0.635458
0.67507
0.696297
0.699622
0.688797
0.666523
0.636356
0.601644
0.565371
0.526974
0.483321
0.434795
0.382307
0.328834
0.278647
0.237018
0.208552
0.253151
0.236913