/*--------------------------------*- C++ -*----------------------------------*\
| =========                 |                                                 |
| \\      /  F ield         | OpenFOAM: The Open Source CFD Toolbox           |
|  \\    /   O peration     | Version:  5.0                                   |
|   \\  /    A nd           | Web:      www.OpenFOAM.org                      |
|    \\/     M anipulation  |                                                 |
\*---------------------------------------------------------------------------*/
FoamFile
{
    version     2.0;
    format      ascii;
    class       volScalarField;
    location    "1250/air";
    object      nut;
}
// * * * * * * * * * * * * * * * * * * * * * * * * * * * * * * * * * * * * * //

dimensions      [0 2 -1 0 0 0 0];

internalField   nonuniform List<scalar> 
243000
(
0.000125388
0.000131074
0.000130105
0.00012719
0.000122968
0.000118076
0.000112917
0.000107751
0.000102718
9.79148e-05
9.33553e-05
8.90704e-05
8.50408e-05
8.13854e-05
7.81948e-05
7.57255e-05
7.41185e-05
7.29061e-05
7.37432e-05
7.42105e-05
7.43536e-05
7.4257e-05
7.3305e-05
7.30431e-05
0.000324818
0.000320926
0.00031644
0.000315029
0.000295496
0.00032015
0.000539987
0.000584859
0.000599619
0.000604496
0.000602799
0.000596971
0.000588257
0.000577573
0.000565447
0.000552285
0.000538209
0.000523586
0.000508623
0.000494314
0.000481387
0.00047139
0.000464661
0.000462835
0.000460023
0.000456644
0.000451038
0.000442115
0.000430441
0.000413984
0.000396407
0.000376528
0.00035493
0.000326313
0.000297747
0.000286586
0.000575153
0.000622583
0.000640506
0.000647653
0.000647224
0.00064213
0.00063376
0.000623142
0.000610876
0.00059747
0.000583155
0.000568477
0.000553777
0.000540256
0.000528729
0.000520843
0.000516579
0.000515374
0.000514564
0.000511985
0.000506187
0.000496434
0.000482292
0.000464326
0.0004433
0.000419508
0.000393636
0.000364168
0.000331978
0.000307033
0.000578963
0.000631509
0.000656542
0.000667767
0.000670469
0.000667682
0.000661046
0.000651701
0.000640385
0.000627734
0.000614106
0.000600227
0.000586589
0.000574601
0.000565161
0.000559969
0.000558581
0.000559655
0.000560057
0.000557779
0.000551511
0.000540874
0.00052566
0.000506339
0.000483556
0.00045769
0.000429192
0.00039739
0.000363679
0.000333683
0.000564434
0.00062134
0.000653384
0.000670983
0.000678604
0.000679313
0.000675331
0.000668071
0.000658447
0.000647235
0.000634947
0.000622492
0.00061053
0.000600673
0.000593868
0.000591809
0.000593466
0.000596843
0.000598444
0.000596363
0.000589577
0.000578084
0.000561952
0.000541653
0.000517769
0.00049063
0.000460524
0.000426929
0.000392227
0.000359888
0.000535337
0.000598483
0.000637965
0.000662028
0.000675034
0.000680123
0.000679566
0.000675035
0.00066772
0.000658483
0.000648046
0.000637505
0.00062771
0.000620472
0.000616764
0.000618176
0.000622929
0.00062854
0.000631245
0.000629296
0.000622004
0.000609723
0.000592804
0.000571762
0.000547158
0.000519268
0.000488245
0.000453639
0.000417959
0.000384112
0.000502292
0.000567631
0.000612387
0.000643054
0.000661922
0.00067203
0.000675612
0.000674549
0.000669935
0.000663095
0.000654972
0.000646762
0.000639554
0.000635367
0.000635157
0.000640291
0.000648138
0.000655863
0.000659562
0.000657702
0.000649934
0.000636952
0.000619361
0.000597746
0.000572656
0.000544346
0.000512874
0.000477772
0.000441244
0.000406374
0.000468372
0.000534738
0.00058352
0.000617779
0.000641382
0.000656615
0.000664761
0.000667583
0.000666346
0.000662436
0.000656847
0.000651323
0.000647091
0.000646321
0.000650008
0.000659024
0.000669916
0.000679616
0.000684194
0.000682398
0.000674205
0.000660616
0.000642454
0.000620394
0.000594988
0.000566481
0.000534867
0.000499617
0.000462485
0.000426887
0.000442102
0.000499213
0.000552299
0.000591115
0.000618274
0.00063644
0.000648551
0.00065536
0.000657811
0.000657178
0.000654591
0.000652018
0.000651075
0.000654133
0.000661991
0.000674994
0.000688875
0.000700384
0.000705737
0.000703992
0.000695434
0.000681331
0.000662701
0.000640299
0.0006147
0.000586149
0.000554583
0.000519453
0.000481964
0.000445856
0.000435569
0.000466272
0.000518344
0.000561771
0.00059347
0.000615357
0.000630207
0.000639412
0.000645388
0.000648157
0.000648836
0.000649528
0.000652156
0.000659375
0.000671624
0.000688672
0.000705457
0.000718604
0.000724636
0.00072294
0.000714082
0.000699565
0.000680563
0.000657914
0.000632217
0.000603729
0.000572338
0.000537536
0.000499799
0.000463386
0.000464
0.000453306
0.000486129
0.000529714
0.000566051
0.000592453
0.00061086
0.000622923
0.000630915
0.000636359
0.000640236
0.000644352
0.000650845
0.000662505
0.000679327
0.000700417
0.000719983
0.000734602
0.00074123
0.000739589
0.000730504
0.000715668
0.000696392
0.000673587
0.000647875
0.000619525
0.000588412
0.000553913
0.000516164
0.000479614
0.000502091
0.000480401
0.000472652
0.000499974
0.000536544
0.000567225
0.000589879
0.000605474
0.000616063
0.000623414
0.000629591
0.000636999
0.000647514
0.000663953
0.000685426
0.000710496
0.000732684
0.00074863
0.000755778
0.00075421
0.000744971
0.000729917
0.000710466
0.000687594
0.000661938
0.000633779
0.000603001
0.000568768
0.000531213
0.000494788
0.00054049
0.000522306
0.000495196
0.000487829
0.000510155
0.000540683
0.000567095
0.000586681
0.000600476
0.000610237
0.000618185
0.000628041
0.000642538
0.000663764
0.000690134
0.000719094
0.000743719
0.000760878
0.00076848
0.00076701
0.000757695
0.000742523
0.000722999
0.000700153
0.000674623
0.000646715
0.00061619
0.000582287
0.000545081
0.000508817
0.000578116
0.000563422
0.000540328
0.000508803
0.0005004
0.000517982
0.000543775
0.000566627
0.000583953
0.000596599
0.000606752
0.000618167
0.000636298
0.000662435
0.000693633
0.000726335
0.000753211
0.000771472
0.000779486
0.000778151
0.000768843
0.000753651
0.000734159
0.000711432
0.000686097
0.000658459
0.000628211
0.000594636
0.000557898
0.000521855
0.000615094
0.000602521
0.000582849
0.000553793
0.000520025
0.000510052
0.00052432
0.000546527
0.000566656
0.0005824
0.000595154
0.000608597
0.000629213
0.000660138
0.000696038
0.00073229
0.000761236
0.000780503
0.000788909
0.000787758
0.000778542
0.000763432
0.000744081
0.000721555
0.000696506
0.000669161
0.000639203
0.000605945
0.000569778
0.000534026
0.000651634
0.000639959
0.000622168
0.000596371
0.000558128
0.00052524
0.000516565
0.000529618
0.000549507
0.000567791
0.000583348
0.000599205
0.00062162
0.000656993
0.000697417
0.000736987
0.000767831
0.000788032
0.000796835
0.000795924
0.000786886
0.000771974
0.000752863
0.000730657
0.000705977
0.00067895
0.000649291
0.00061634
0.000580829
0.000545435
0.000687783
0.000676146
0.00065909
0.000635117
0.000601534
0.000558969
0.000527066
0.000521229
0.000534636
0.000553378
0.000571431
0.000589943
0.000614475
0.000653213
0.000697793
0.000740412
0.000773002
0.000794087
0.000803328
0.000802716
0.000793974
0.000779369
0.00076062
0.000738837
0.000714575
0.000687922
0.000658587
0.000625947
0.000591158
0.000556176
0.000723567
0.000711394
0.000694342
0.000671151
0.000640009
0.000597791
0.000553313
0.000525949
0.000525298
0.000540406
0.000559737
0.000580849
0.000607759
0.000648905
0.000697097
0.000742517
0.000776718
0.000798674
0.000808429
0.000808235
0.000799888
0.000785711
0.000767433
0.000746172
0.000722396
0.000696175
0.000667203
0.000634889
0.000600864
0.000566342
0.000758936
0.000745851
0.000728321
0.000705241
0.000675103
0.000635407
0.000587384
0.000543975
0.000524643
0.000530671
0.000548917
0.000572066
0.000601404
0.000644121
0.0006954
0.000743248
0.000778912
0.000801789
0.000812184
0.000812516
0.000804701
0.00079107
0.000773384
0.000752714
0.000729521
0.000703808
0.000675256
0.000643297
0.000610055
0.000576028
0.000793821
0.000779579
0.000761276
0.000737909
0.000708169
0.000670591
0.000622945
0.000571098
0.000534071
0.000526076
0.000539847
0.000563853
0.000595395
0.000638951
0.000692645
0.000742658
0.000779675
0.000803382
0.000814596
0.000815583
0.00080846
0.000795509
0.000778535
0.000758553
0.000736039
0.000710946
0.000682906
0.000651344
0.000618867
0.000585342
0.000828236
0.000812648
0.000793379
0.000769492
0.000739917
0.000703744
0.000657314
0.000602277
0.000552124
0.00052805
0.000533548
0.000556582
0.000589794
0.000634272
0.000688878
0.000740563
0.000778991
0.000803661
0.00081564
0.000817454
0.000811202
0.000799122
0.000782958
0.000763784
0.000742058
0.000717709
0.000690285
0.000659188
0.000627434
0.00059441
0.000862274
0.00084526
0.000824914
0.000800499
0.000772001
0.000735957
0.000690179
0.000634128
0.000575868
0.000536756
0.000531016
0.000550828
0.000584839
0.00063003
0.000684159
0.00073692
0.000776522
0.000802311
0.000815384
0.000818126
0.000812962
0.000801907
0.000786729
0.000768512
0.000747711
0.00072424
0.000697568
0.000667067
0.000635927
0.000603356
0.000896924
0.000878282
0.000856797
0.000832678
0.000803767
0.000767302
0.000721537
0.000665166
0.000602443
0.00055123
0.000532868
0.000547246
0.000580834
0.000626289
0.000679137
0.00073172
0.000772198
0.000799125
0.000813411
0.000817387
0.000813421
0.000803716
0.000789769
0.000772725
0.000753052
0.000730654
0.000704923
0.000675128
0.000644532
0.000612321
0.000930829
0.00091305
0.00089274
0.000867197
0.000835961
0.000798148
0.000751772
0.000695188
0.000630175
0.000570242
0.000539395
0.000546122
0.000578114
0.000623421
0.000675085
0.000725758
0.000766014
0.000793932
0.000809514
0.000814919
0.000812393
0.000804157
0.000791714
0.00077614
0.000757902
0.000736876
0.000712385
0.000683503
0.00065346
0.000621513
0.000963334
0.000946925
0.000926238
0.000899796
0.000866629
0.000827843
0.000781275
0.000724931
0.00065908
0.000593387
0.000551438
0.000549034
0.000577589
0.000622229
0.000672999
0.000722103
0.0007615
0.000789328
0.000805784
0.000812427
0.000811248
0.000804112
0.000792732
0.000778381
0.000761809
0.000742505
0.000719653
0.000692329
0.000663018
0.000631291
0.000989514
0.000972953
0.000952279
0.000925836
0.000894212
0.000856736
0.000811514
0.000756595
0.000691458
0.000622784
0.000571888
0.000559686
0.000583565
0.000626702
0.000676272
0.000723805
0.000762247
0.000789782
0.000806595
0.000813975
0.000813943
0.000807874
0.000797415
0.000783846
0.00076787
0.000749391
0.000727896
0.000702657
0.000674392
0.000642838
0.00101051
0.000993916
0.000974908
0.000951903
0.00092377
0.000889459
0.000847465
0.00079603
0.000734261
0.000666565
0.000610774
0.000589646
0.000607318
0.000647666
0.000695075
0.000740079
0.000776368
0.000802511
0.000818686
0.0008261
0.000826481
0.000820925
0.00081096
0.000797803
0.000782154
0.000764115
0.000743321
0.000719259
0.000691712
0.000660028
0.00104454
0.00102863
0.00101094
0.00099066
0.00096675
0.000937942
0.000902691
0.000859374
0.000807077
0.000748498
0.000696808
0.000672585
0.00068349
0.000717744
0.000759343
0.000798062
0.000828484
0.000850243
0.000863338
0.000868724
0.00086775
0.000861329
0.000850753
0.000837107
0.000821027
0.000802608
0.000781689
0.000757798
0.000730183
0.000697352
0.00111112
0.00109867
0.00108644
0.00107401
0.00106047
0.00104441
0.00102428
0.000998879
0.000967811
0.000932149
0.000899847
0.000883925
0.000889769
0.000911774
0.0009388
0.000963176
0.000981119
0.000993144
0.000999024
0.000999479
0.000995109
0.000986664
0.000975016
0.000960849
0.000944502
0.000925318
0.00090387
0.000880234
0.000853251
0.000821125
0.0013365
0.0013359
0.00133845
0.00134051
0.00134132
0.00134023
0.00133661
0.00133045
0.00132191
0.0013091
0.00129699
0.00128975
0.00128839
0.00129247
0.00129801
0.00130406
0.00130806
0.00131117
0.00131286
0.00131372
0.00131362
0.00131279
0.00131124
0.00130891
0.00130559
0.00129669
0.00128611
0.00127605
0.00126299
0.0012459
0.000152891
0.000161899
0.000162092
0.000159133
0.000154359
0.000148642
0.000142514
0.000136314
0.000130227
0.000124408
0.000118907
0.000113829
0.00010919
0.000105195
0.00010194
9.96796e-05
9.83474e-05
9.78147e-05
9.77535e-05
9.77651e-05
9.72516e-05
9.56455e-05
9.25634e-05
8.79401e-05
8.20437e-05
7.52078e-05
0.000317081
0.000312009
0.000314167
7.7136e-05
0.000544865
0.000633378
0.000627804
0.000595849
0.000558008
0.000520381
0.000486146
0.000455863
0.000429348
0.000406574
0.000386859
0.000370529
0.000356873
0.000347323
0.000340773
0.000337836
0.000334731
0.000331174
0.000325854
0.00032028
0.000315037
0.000309557
0.000301248
0.000289214
0.000272497
0.000249328
0.000257024
0.000296775
0.000324198
0.000308239
0.000849551
0.00100388
0.00103505
0.00101536
0.000974481
0.000927219
0.000880364
0.000836838
0.000797523
0.000763301
0.000733704
0.000709928
0.000691167
0.000680194
0.000674724
0.000674595
0.0006713
0.000662801
0.000646398
0.000625903
0.000604811
0.000585089
0.00056365
0.000536296
0.000501027
0.000456229
0.000415399
0.000389316
0.00039095
0.000427147
0.00100285
0.00120795
0.00129518
0.00130228
0.00127913
0.00123962
0.00119483
0.00115052
0.0011091
0.00107274
0.00104194
0.0010191
0.00100395
0.000999876
0.00100306
0.00101167
0.00101218
0.00100014
0.000972156
0.000934987
0.000895153
0.000857047
0.000817767
0.000772699
0.000718556
0.000652903
0.000583281
0.000515472
0.000470991
0.000473914
0.00106299
0.00127739
0.00140459
0.00146474
0.00147631
0.00145604
0.0014228
0.00138637
0.00135079
0.00131972
0.00129512
0.0012807
0.00127708
0.00128753
0.00130643
0.00132879
0.00133531
0.00132087
0.00128191
0.00122864
0.00117046
0.00111388
0.00105718
0.000995358
0.000924195
0.000840528
0.000749306
0.000655577
0.000573495
0.000533447
0.00104465
0.00127778
0.00144273
0.00153905
0.00158198
0.00158874
0.00157434
0.00155214
0.00152826
0.0015084
0.0014961
0.00149653
0.00151121
0.00154305
0.00158432
0.00162343
0.00163647
0.00161983
0.00157025
0.00150171
0.00142653
0.00135284
0.0012802
0.00120343
0.00111751
0.00101842
0.000910702
0.000798277
0.00069077
0.000614664
0.000965557
0.00120352
0.00140444
0.00153751
0.00161468
0.00165059
0.00166028
0.00165722
0.00164927
0.00164542
0.00165071
0.00167162
0.00171072
0.00177098
0.00183969
0.00189703
0.00191578
0.00189618
0.00183636
0.00175342
0.00166279
0.00157377
0.00148691
0.00139707
0.00129821
0.00118758
0.00106729
0.000941293
0.000816113
0.000711708
0.000852959
0.00107453
0.00129371
0.00146659
0.00158282
0.00165115
0.00168838
0.0017084
0.00172126
0.00173791
0.00176449
0.00181113
0.00188119
0.00197618
0.00207555
0.00215137
0.00217397
0.00215054
0.00208074
0.0019844
0.00187991
0.00177741
0.00167802
0.00157662
0.00146768
0.00134807
0.00121845
0.00108234
0.000945517
0.000818675
0.000733173
0.000921263
0.00114093
0.00134063
0.00149251
0.00159697
0.00166549
0.00171239
0.00174976
0.00179067
0.00184354
0.00191965
0.00202781
0.00216299
0.00229377
0.00238767
0.00241198
0.00238374
0.00230445
0.00219581
0.00207907
0.0019649
0.00185467
0.00174313
0.00162626
0.00149977
0.00136348
0.00122008
0.00107566
0.000931116
0.000645322
0.000772679
0.000971325
0.0011802
0.00135853
0.00149544
0.00159661
0.00167407
0.00173894
0.00180803
0.00189186
0.00200284
0.0021563
0.0023338
0.00249637
0.00260669
0.00263065
0.00259671
0.00250866
0.00238902
0.00226167
0.00213764
0.00201808
0.00189805
0.00177468
0.00164325
0.00150214
0.00135335
0.0012044
0.00104585
0.000608935
0.000663425
0.000812574
0.00100783
0.00119804
0.00136006
0.00149054
0.00159761
0.00169265
0.00179385
0.00191272
0.00206482
0.00227308
0.00249143
0.00268442
0.00280833
0.00283101
0.00279034
0.00269461
0.00256548
0.00242925
0.00229709
0.00216868
0.00204218
0.00191374
0.00177881
0.00163469
0.00148294
0.00133123
0.0011608
0.000626956
0.000619774
0.000698564
0.000850806
0.00103204
0.0012057
0.00135914
0.00149301
0.00161775
0.00175225
0.00190919
0.00210914
0.00237268
0.00263685
0.00285839
0.00299263
0.00301322
0.00296567
0.00286351
0.00272664
0.00258345
0.00244416
0.00230857
0.0021767
0.00204436
0.00190696
0.0017619
0.001608
0.00145304
0.00127387
0.000697784
0.000651947
0.000656809
0.000743854
0.000885999
0.00105196
0.00121613
0.00137087
0.00152317
0.00168968
0.00188414
0.00213944
0.00245917
0.00277043
0.00301771
0.00315923
0.00317741
0.00312357
0.00301652
0.00287381
0.00272541
0.00257973
0.00243877
0.0023027
0.0021675
0.00202846
0.00188293
0.00172776
0.00156995
0.00138372
0.000825922
0.000755059
0.00071391
0.000714105
0.000793279
0.000923199
0.00107918
0.0012438
0.00141769
0.00161328
0.00184523
0.00215813
0.00253645
0.00289157
0.00316105
0.00330745
0.00332359
0.00326479
0.00315459
0.00300825
0.00285579
0.0027045
0.00256011
0.00242113
0.00228396
0.00214447
0.00199789
0.00184277
0.00168249
0.00148998
0.0010173
0.00092921
0.000853891
0.000797439
0.00078786
0.000850614
0.000969751
0.00112629
0.00131077
0.00152978
0.00179969
0.00216712
0.00260377
0.00299885
0.00328688
0.00343639
0.00345165
0.00338976
0.00327835
0.00313048
0.0029752
0.00282049
0.00267368
0.00253291
0.00239451
0.00225464
0.00210784
0.00195317
0.00179097
0.00159375
0.00127414
0.00117429
0.0010685
0.000967114
0.00088634
0.000859925
0.000912846
0.00103486
0.00121358
0.00144666
0.00175458
0.00217395
0.00265923
0.0030904
0.00339354
0.00354493
0.00356108
0.00349849
0.00338803
0.00324034
0.00308365
0.00292837
0.00278051
0.002639
0.00250028
0.00235993
0.00221338
0.00205946
0.00189541
0.00169457
0.0015708
0.00146415
0.00134065
0.00120532
0.00107081
0.000964498
0.000927895
0.000987583
0.00113903
0.00137514
0.00171486
0.002175
0.00269798
0.00316702
0.0034789
0.00363152
0.00365085
0.00359044
0.00348318
0.0033373
0.00318251
0.00302823
0.00288084
0.00273971
0.00260158
0.00246112
0.00231526
0.00216329
0.00199658
0.00179242
0.00189798
0.00178561
0.00165136
0.00149187
0.00131855
0.0011493
0.0010261
0.000998353
0.00110069
0.00132504
0.00168414
0.00217057
0.00272124
0.00322377
0.00353996
0.00369395
0.00371884
0.00366435
0.00356243
0.00342176
0.0032705
0.00311939
0.0029742
0.00283472
0.00269773
0.00255837
0.0024139
0.0022652
0.00209533
0.00188768
0.00224063
0.00212401
0.00198093
0.00180704
0.00160671
0.00139106
0.00119531
0.00107944
0.00110004
0.00129606
0.00165776
0.00216339
0.00273347
0.00325682
0.00357238
0.00372871
0.00376188
0.0037172
0.00362405
0.00349069
0.0033456
0.00319935
0.00305886
0.00292254
0.00278824
0.00265102
0.00250936
0.00236509
0.00219216
0.0019809
0.00258029
0.00246169
0.00231383
0.00213189
0.00191341
0.00166496
0.00141387
0.00121875
0.00115489
0.00128515
0.00163994
0.00215473
0.00273024
0.00324717
0.00356933
0.00373003
0.00377454
0.00374345
0.00366299
0.00353991
0.00340412
0.00326359
0.00312869
0.00299841
0.00287009
0.00273848
0.00260328
0.00246345
0.00228727
0.00207233
0.00289565
0.00277826
0.00263045
0.00244537
0.00221614
0.00194623
0.00165628
0.00139855
0.00125672
0.00131355
0.00162228
0.00212616
0.00268774
0.00319888
0.0035215
0.00368797
0.00374707
0.00373303
0.00366987
0.00356255
0.00343891
0.00330867
0.00318199
0.00305777
0.00293522
0.00281212
0.00268617
0.00255314
0.00237677
0.00216063
0.00316305
0.00305066
0.00290815
0.00272393
0.00249098
0.00220968
0.00189567
0.00159377
0.00138531
0.00136584
0.00163229
0.00208838
0.00262053
0.00309744
0.00341175
0.00358543
0.00366333
0.00366789
0.00362746
0.00354296
0.00343838
0.00332413
0.00321018
0.00309629
0.00298337
0.00287006
0.00275371
0.00262858
0.00245772
0.00224317
0.00335331
0.00325187
0.00311924
0.00294176
0.00271263
0.00242929
0.00210413
0.00177528
0.00151643
0.00142948
0.00161884
0.0020234
0.00249206
0.00291542
0.00321375
0.00339708
0.00349573
0.00352206
0.00350892
0.00345399
0.00337608
0.00328575
0.00319189
0.00309588
0.00299866
0.00289938
0.00279425
0.00267938
0.00251943
0.00231223
0.00345738
0.00335871
0.00323555
0.00307391
0.0028573
0.00258
0.00225428
0.00191319
0.00162033
0.00147298
0.0015577
0.00188579
0.00227627
0.00263816
0.00291156
0.00310487
0.00321989
0.00326961
0.00328645
0.00326532
0.00321992
0.00316057
0.00309459
0.00302407
0.00294979
0.00287147
0.00278618
0.00268684
0.00254196
0.00235012
0.00346675
0.00337355
0.00325914
0.00310961
0.00290873
0.00264339
0.00232756
0.00198979
0.00168149
0.00148208
0.00146725
0.00167957
0.00199248
0.00230041
0.00254635
0.00274076
0.00286085
0.00292999
0.00297209
0.00297892
0.00296225
0.00293185
0.00289498
0.00285271
0.00280498
0.00275228
0.00269212
0.00261836
0.00249748
0.0023275
0.00337851
0.00330031
0.00319957
0.00306306
0.0028739
0.00262835
0.00233956
0.00203036
0.00173838
0.00151965
0.00143576
0.00153759
0.0017624
0.0020234
0.00224257
0.00242162
0.00253423
0.00260681
0.00265629
0.00267356
0.0026688
0.00265101
0.00262788
0.00260154
0.00257252
0.00254009
0.00250088
0.00244818
0.00236156
0.00221709
0.00321744
0.00316377
0.00308289
0.00296553
0.0028032
0.00259762
0.00236307
0.00211509
0.00187893
0.00168822
0.00158445
0.00161396
0.00175897
0.00195492
0.00213944
0.00228478
0.00237665
0.0024381
0.00247754
0.0024886
0.00247961
0.00245836
0.00243177
0.00240274
0.0023721
0.00233939
0.00230196
0.00225372
0.00218138
0.00206063
0.00305638
0.00303459
0.00298585
0.00290448
0.00278728
0.00263888
0.00247182
0.00229889
0.00213375
0.00199297
0.0018994
0.00189648
0.00197935
0.00210856
0.0022412
0.00234493
0.00241088
0.00245701
0.00248332
0.00248787
0.00247632
0.00245464
0.00242782
0.00239839
0.00236621
0.00233004
0.00228814
0.00223417
0.00215808
0.00204283
0.00291206
0.00290383
0.00289274
0.0028593
0.00279951
0.00271344
0.00261062
0.00250249
0.00239589
0.00229917
0.00222701
0.00221143
0.00224984
0.00232202
0.00239816
0.00246145
0.00250292
0.00253389
0.00255224
0.00255821
0.00255503
0.00254664
0.00253605
0.00252458
0.00251019
0.00249169
0.0024672
0.00242913
0.00237183
0.00228551
0.00282521
0.0028315
0.00283532
0.00282361
0.00279538
0.00275495
0.00269923
0.00263671
0.00257234
0.00251226
0.00246448
0.00244293
0.00244991
0.00247682
0.00250737
0.00253794
0.00256108
0.00257779
0.0025908
0.00260038
0.00260825
0.00261599
0.00262458
0.00263373
0.00264246
0.00264866
0.00265419
0.0026474
0.00263149
0.00260075
0.000177745
0.000186594
0.000185355
0.000181575
0.000176044
0.000169543
0.000162636
0.000155697
0.000148938
0.000142538
0.000136541
0.000131063
0.000126086
0.000121826
0.000118323
0.000115805
0.000114116
0.000113399
0.000113747
0.000114639
0.000114798
0.000113018
0.000108476
0.000100923
9.05653e-05
7.78635e-05
6.81858e-05
0.000310404
0.000315471
8.08199e-05
0.000702612
0.000829934
0.000849493
0.000819409
0.000773292
0.000726299
0.000683148
0.000644853
0.000611145
0.000581857
0.000555645
0.000532779
0.000511191
0.000493117
0.000475993
0.000461222
0.000443774
0.000430427
0.000423095
0.00042275
0.00042596
0.000427255
0.000416773
0.000391056
0.000350279
0.000304105
0.000270652
0.000326869
0.000296935
0.00033709
0.00110429
0.00132501
0.00140883
0.00141027
0.00137189
0.00132022
0.00126623
0.00121454
0.00116675
0.00112416
0.00108576
0.00105269
0.00102184
0.00099642
0.00097166
0.000947648
0.000914056
0.000882057
0.000853959
0.000833254
0.000819166
0.000804399
0.000775935
0.000725956
0.000648192
0.000554543
0.000472612
0.000431829
0.000405977
0.000501256
0.00134945
0.00163938
0.00177311
0.00180961
0.00180041
0.00176377
0.00171715
0.00166843
0.00162138
0.00157915
0.00154211
0.0015126
0.00148712
0.00146764
0.00144695
0.00142246
0.0013792
0.00132951
0.00127766
0.00123234
0.00119513
0.00116091
0.00111227
0.00103595
0.000927128
0.000794395
0.000666753
0.000567442
0.000508478
0.000573411
0.00146776
0.00175802
0.00194242
0.00205018
0.00208403
0.0020733
0.00204408
0.00200848
0.00197209
0.0019402
0.00191508
0.00190047
0.00189172
0.00188891
0.00188101
0.00186181
0.00181216
0.00174433
0.0016686
0.00159835
0.00153728
0.00148178
0.00141478
0.00131882
0.00118685
0.00102538
0.000861882
0.000721887
0.000624432
0.000640461
0.00152627
0.00180536
0.00201716
0.0021592
0.00223746
0.00226989
0.00226754
0.00225252
0.00223429
0.0022209
0.00221648
0.00222608
0.00224442
0.00226707
0.00227795
0.0022667
0.00221027
0.00212319
0.00202319
0.00192875
0.00184571
0.00177082
0.0016882
0.00157721
0.00142899
0.00124736
0.00105746
0.000886865
0.000756406
0.000732752
0.00152724
0.001795
0.00202444
0.00219653
0.00230975
0.00237483
0.00240401
0.00241545
0.00242139
0.00243385
0.00245798
0.00250108
0.00255524
0.00261091
0.00264454
0.00264069
0.00257564
0.00246775
0.00234348
0.00222598
0.00212302
0.00203126
0.0019355
0.00181343
0.00165478
0.00146037
0.00125108
0.00105767
0.000901316
0.000846836
0.00144266
0.00169209
0.00194096
0.00215041
0.0023014
0.00240222
0.0024658
0.00250816
0.00254481
0.00258927
0.00264889
0.00273493
0.00283276
0.00292792
0.00298679
0.00298673
0.00291038
0.00278048
0.00263256
0.00249353
0.00237291
0.00226685
0.00215964
0.0020297
0.00186503
0.00166357
0.00144256
0.00123205
0.00105552
0.000977053
0.00131625
0.00154071
0.00179799
0.00203299
0.00221943
0.00236028
0.00246161
0.00254046
0.00261275
0.00269572
0.00279739
0.00293671
0.00308503
0.0032237
0.00330751
0.00330693
0.00321571
0.0030637
0.00289375
0.00273524
0.00259935
0.0024815
0.00236445
0.00222859
0.00206106
0.00185699
0.00163219
0.00140892
0.00121579
0.00111847
0.00118158
0.00136292
0.00161328
0.00186689
0.00208481
0.00226014
0.00239904
0.0025193
0.00263253
0.00276066
0.0029128
0.00311582
0.00331812
0.00350165
0.00360746
0.00360247
0.00349233
0.00331988
0.00313034
0.00295508
0.00280626
0.00267884
0.00255319
0.00241274
0.00224404
0.00204209
0.00181451
0.00158361
0.0013796
0.00126732
0.00106768
0.00118639
0.00140803
0.00166707
0.00190946
0.00211741
0.00229355
0.00245251
0.00261046
0.0027903
0.00300045
0.00327083
0.0035363
0.00376174
0.00388582
0.00387302
0.00374165
0.00355162
0.00334579
0.00315684
0.00299753
0.00286204
0.00272902
0.0025849
0.00241605
0.00221728
0.00198995
0.00175575
0.00154519
0.00142077
0.000996688
0.00104592
0.00121445
0.00145589
0.00170929
0.00194382
0.00215504
0.00235404
0.00255864
0.00279103
0.00306687
0.00341196
0.00374086
0.00400498
0.00414162
0.00411775
0.00396529
0.00376187
0.00354338
0.00334422
0.00317704
0.00303354
0.00289476
0.00274779
0.00257944
0.00238305
0.00215936
0.00192548
0.00171072
0.00157591
0.000983606
0.000970655
0.00107013
0.00126675
0.00150838
0.0017561
0.00199601
0.00223359
0.00248605
0.00277443
0.00311935
0.00354588
0.0039309
0.00423237
0.00437258
0.00433572
0.00416508
0.00395353
0.00372637
0.00352049
0.00334762
0.00319585
0.00305301
0.00290385
0.00273636
0.00254234
0.00232347
0.00209415
0.00187675
0.0017317
0.00104752
0.000986597
0.00101614
0.00114511
0.00134281
0.00157946
0.00183393
0.00210356
0.00240195
0.00274684
0.00316948
0.00366988
0.00410265
0.00443191
0.00457509
0.00452597
0.00434286
0.00412917
0.00389749
0.00368852
0.0035113
0.00335341
0.00320656
0.00305507
0.00288836
0.00269725
0.0024836
0.00226024
0.00204392
0.00188769
0.00121123
0.0011184
0.0010853
0.00112487
0.0012591
0.00144882
0.00169316
0.00197989
0.0023171
0.00271975
0.00322701
0.00377759
0.00425266
0.00460315
0.0047459
0.00468753
0.00449996
0.00429039
0.00405857
0.00385002
0.00366945
0.00350772
0.00335729
0.00320505
0.0030383
0.00284987
0.00264136
0.00242458
0.00221139
0.0020434
0.00148099
0.00136894
0.00129231
0.00125635
0.00128296
0.00140273
0.00160399
0.00188179
0.00224302
0.00270688
0.00327565
0.00386229
0.00438482
0.00474215
0.0048813
0.00481905
0.0046366
0.00443701
0.0042102
0.00400494
0.00382264
0.00365911
0.00350737
0.00335531
0.00318878
0.00300242
0.00279855
0.00258787
0.00237765
0.00219895
0.00184359
0.00171978
0.00161162
0.00151734
0.00145557
0.00146215
0.0015807
0.00182967
0.00220046
0.00270672
0.00330659
0.00392192
0.00449443
0.00484152
0.00497668
0.00491803
0.00475094
0.00456656
0.00435076
0.0041513
0.00396961
0.00380629
0.00365567
0.00350553
0.00334259
0.00315719
0.00295744
0.00275
0.00254114
0.00235393
0.00226751
0.00213507
0.0020029
0.00186508
0.00173345
0.00164333
0.00164803
0.00181306
0.00217517
0.00269519
0.00331999
0.00395868
0.004543
0.00489147
0.00502629
0.00497993
0.00483812
0.00467415
0.00447502
0.00428448
0.00410707
0.00394389
0.00379589
0.0036515
0.00349482
0.00331611
0.00311806
0.00291098
0.00270188
0.002507
0.00271264
0.00257221
0.00242071
0.00225089
0.00206882
0.00190197
0.00180918
0.00186686
0.00216147
0.00268063
0.0033201
0.00396834
0.00453446
0.0048835
0.00502265
0.00499749
0.0048888
0.0047504
0.00457344
0.00439644
0.00422709
0.00406908
0.00392275
0.00378019
0.00363109
0.00346472
0.00327496
0.00306791
0.00285782
0.00265543
0.00314025
0.00299168
0.00282458
0.00263142
0.00241415
0.00219234
0.00201853
0.00197725
0.00218212
0.00264539
0.00326671
0.00390001
0.00446266
0.00480684
0.00495542
0.00495929
0.00488848
0.00478037
0.00463077
0.0044731
0.00431748
0.00416842
0.00402802
0.00389067
0.00374721
0.00358647
0.00340956
0.00321158
0.00300284
0.00279383
0.00351783
0.0033614
0.00318215
0.00297234
0.00273108
0.00247179
0.00223826
0.00211636
0.00220808
0.00261761
0.0031783
0.003793
0.00431145
0.0046481
0.00481122
0.00484998
0.0048177
0.00474334
0.00462528
0.00449149
0.0043546
0.00422074
0.00409247
0.00396546
0.00383129
0.00367816
0.00350955
0.00332319
0.00312299
0.00291373
0.00381956
0.00365687
0.0034692
0.0032483
0.0029914
0.00270739
0.00243152
0.00223915
0.00222843
0.00254785
0.0030518
0.00359866
0.00406882
0.00439549
0.00457764
0.00465486
0.00465652
0.00461696
0.00453161
0.00442673
0.00431437
0.00420144
0.00409136
0.00398078
0.00386209
0.00372264
0.00356615
0.00339407
0.00320528
0.00300307
0.00402487
0.00386009
0.00366889
0.00344253
0.00317716
0.00287825
0.00257348
0.00232519
0.00222549
0.0024086
0.00283481
0.00331546
0.00374175
0.00405962
0.00425832
0.0043705
0.00440286
0.00439489
0.00434344
0.0042683
0.00418253
0.00409367
0.00400565
0.00391609
0.00381814
0.003702
0.00356067
0.00340466
0.00323413
0.0030446
0.00412154
0.00396135
0.00377345
0.00354914
0.00328364
0.00298022
0.00266097
0.00237611
0.00220742
0.00225023
0.00255925
0.00297739
0.00337504
0.00368738
0.00389862
0.00403589
0.00409139
0.00410804
0.00408483
0.00403488
0.00397163
0.00390338
0.00383483
0.00376466
0.00368714
0.00359435
0.00347938
0.00333918
0.00318425
0.00301164
0.00410971
0.00396441
0.00379036
0.00357929
0.00332612
0.00303376
0.00272135
0.00242892
0.00222145
0.00216391
0.0023478
0.00268275
0.00304918
0.00335845
0.00357281
0.00371989
0.00378631
0.00381771
0.00381123
0.00377666
0.00372663
0.00366969
0.00361146
0.00355174
0.00348628
0.0034088
0.00331342
0.00319675
0.0030542
0.00288736
0.00401232
0.00389571
0.00375079
0.00356902
0.0033452
0.00308477
0.00280635
0.00254123
0.00233668
0.00222838
0.00231306
0.00255573
0.00285995
0.00314998
0.00335343
0.00349132
0.00355535
0.00359027
0.00358878
0.00356028