/*--------------------------------*- C++ -*----------------------------------*\
| =========                 |                                                 |
| \\      /  F ield         | OpenFOAM: The Open Source CFD Toolbox           |
|  \\    /   O peration     | Version:  5.0                                   |
|   \\  /    A nd           | Web:      www.OpenFOAM.org                      |
|    \\/     M anipulation  |                                                 |
\*---------------------------------------------------------------------------*/
FoamFile
{
    version     2.0;
    format      ascii;
    class       surfaceScalarField;
    location    "400/porous";
    object      phi;
}
// * * * * * * * * * * * * * * * * * * * * * * * * * * * * * * * * * * * * * //

dimensions      [1 0 -1 0 0 0 0];

internalField   nonuniform List<scalar> 
104700
(
7.63469e-05
2.58379e-06
8.7736e-05
4.58797e-05
1.53403e-06
2.89331e-05
3.349e-05
1.32405e-06
1.10657e-05
2.82039e-05
1.09915e-06
4.18698e-06
2.50882e-05
9.25619e-07
2.19001e-06
2.29209e-05
7.95643e-07
1.37166e-06
2.12657e-05
6.9608e-07
9.59129e-07
1.99381e-05
6.17638e-07
7.10017e-07
1.88402e-05
5.53769e-07
5.44131e-07
1.79117e-05
5.00404e-07
4.28083e-07
1.71129e-05
4.54876e-07
3.4389e-07
1.64163e-05
4.15386e-07
2.81187e-07
1.58021e-05
3.80676e-07
2.33553e-07
1.52555e-05
3.49838e-07
1.96796e-07
1.47652e-05
3.22197e-07
1.68083e-07
1.43225e-05
2.97242e-07
1.45431e-07
1.39205e-05
2.74578e-07
1.27416e-07
1.35536e-05
2.53892e-07
1.12997e-07
1.32173e-05
2.34936e-07
1.01391e-07
1.29078e-05
2.17507e-07
9.20119e-08
1.2622e-05
2.01438e-07
8.44027e-08
1.23572e-05
1.86589e-07
7.82086e-08
1.21112e-05
1.72842e-07
7.31557e-08
1.1882e-05
1.60094e-07
6.90214e-08
1.16682e-05
1.4826e-07
6.56302e-08
1.1468e-05
1.37261e-07
6.28445e-08
1.12805e-05
1.27033e-07
6.0548e-08
1.11043e-05
1.17513e-07
5.865e-08
1.09386e-05
1.08655e-07
5.70725e-08
1.07824e-05
1.00395e-07
5.57578e-08
1.0635e-05
9.27434e-08
5.46397e-08
1.04958e-05
8.55232e-08
5.3712e-08
1.03639e-05
7.90735e-08
5.28404e-08
1.02393e-05
7.23728e-08
5.22623e-08
1.012e-05
6.79737e-08
5.12332e-08
1.00093e-05
5.90024e-08
5.17918e-08
9.89812e-06
6.28263e-08
4.83029e-08
9.80285e-06
3.51761e-08
6.00971e-08
9.70025e-06
7.88942e-08
2.37019e-08
-2.60832e-08
3.17449e-07
7.78123e-05
1.68802e-06
8.97501e-05
4.84263e-05
1.30124e-06
2.96188e-05
3.67847e-05
1.23874e-06
1.17269e-05
3.20157e-05
1.08313e-06
4.78499e-06
2.9323e-05
9.49936e-07
2.66843e-06
2.74966e-05
8.41374e-07
1.78063e-06
2.61194e-05
7.5101e-07
1.32234e-06
2.50213e-05
6.75267e-07
1.04048e-06
2.41151e-05
6.10633e-07
8.49259e-07
2.33484e-05
5.54653e-07
7.12519e-07
2.26869e-05
5.05546e-07
6.10777e-07
2.21076e-05
4.62015e-07
5.32743e-07
2.15937e-05
4.23087e-07
4.71409e-07
2.11333e-05
3.88025e-07
4.22202e-07
2.07173e-05
3.56253e-07
3.82026e-07
2.03385e-05
3.27318e-07
3.48721e-07
1.99914e-05
3.00857e-07
3.20741e-07
1.96718e-05
2.76578e-07
2.9695e-07
1.9376e-05
2.54237e-07
2.76501e-07
1.91011e-05
2.33635e-07
2.58749e-07
1.88448e-05
2.14601e-07
2.43199e-07
1.86049e-05
1.96993e-07
2.29463e-07
1.83798e-05
1.80685e-07
2.17235e-07
1.81681e-05
1.6557e-07
2.06271e-07
1.79684e-05
1.51553e-07
1.96374e-07
1.77797e-05
1.38551e-07
1.87384e-07
1.76011e-05
1.26492e-07
1.79169e-07
1.74317e-05
1.15305e-07
1.71624e-07
1.72707e-05
1.04943e-07
1.64656e-07
1.71176e-05
9.53313e-08
1.58188e-07
1.69717e-05
8.64835e-08
1.52163e-07
1.68325e-05
7.82082e-08
1.46509e-07
1.66995e-05
7.08675e-08
1.41227e-07
1.65724e-05
6.33493e-08
1.36158e-07
1.64503e-05
5.84571e-08
1.31595e-07
1.63342e-05
4.83459e-08
1.26793e-07
1.62199e-05
5.36625e-08
1.23387e-07
1.61162e-05
1.75397e-08
1.21336e-07
1.60074e-05
8.75954e-08
1.00179e-07
-1.09103e-07
3.45246e-07
7.76222e-05
1.22991e-06
8.95025e-05
4.84082e-05
1.23644e-06
2.92788e-05
3.69389e-05
1.20918e-06
1.14989e-05
3.23082e-05
1.07743e-06
4.63645e-06
2.97455e-05
9.49173e-07
2.56345e-06
2.80398e-05
8.39594e-07
1.70742e-06
2.67759e-05
7.46495e-07
1.26841e-06
2.5785e-05
6.68118e-07
9.98027e-07
2.49806e-05
6.01613e-07
8.13427e-07
2.43105e-05
5.44571e-07
6.80248e-07
2.37408e-05
4.95077e-07
5.80162e-07
2.32485e-05
4.5165e-07
5.02615e-07
2.28174e-05
4.13161e-07
4.41068e-07
2.24354e-05
3.78739e-07
3.9125e-07
2.20937e-05
3.47712e-07
3.50266e-07
2.17854e-05
3.19556e-07
3.16089e-07
2.15051e-05
2.93859e-07
2.87251e-07
2.12487e-05
2.70293e-07
2.62672e-07
2.10128e-05
2.48599e-07
2.41534e-07
2.07947e-05
2.28562e-07
2.23215e-07
2.05921e-05
2.10009e-07
2.07223e-07
2.04031e-05
1.92796e-07
1.93174e-07
2.02262e-05
1.76803e-07
1.80757e-07
2.00601e-05
1.61926e-07
1.69726e-07
1.99037e-05
1.48079e-07
1.59874e-07
1.97561e-05
1.35186e-07
1.51034e-07
1.96163e-05
1.23181e-07
1.43067e-07
1.94838e-05
1.12006e-07
1.35854e-07
1.93578e-05
1.0162e-07
1.293e-07
1.92378e-05
9.19606e-08
1.23318e-07
1.91234e-05
8.30483e-08
1.17843e-07
1.90141e-05
7.47046e-08
1.12796e-07
1.89095e-05
6.72971e-08
1.08171e-07
1.88093e-05
5.97413e-08
1.03812e-07
1.8713e-05
5.47954e-08
9.99707e-08
1.86207e-05
4.47885e-08
9.58761e-08
1.85308e-05
4.99086e-08
9.36553e-08
1.84461e-05
1.42481e-08
8.80022e-08
1.836e-05
8.51042e-08
8.85623e-08
-1.22783e-07
1.98533e-07
7.73814e-05
8.69141e-07
8.96461e-05
4.81319e-05
1.03757e-06
2.94483e-05
3.66931e-05
1.04579e-06
1.16023e-05
3.21097e-05
9.57493e-07
4.70331e-06
2.95979e-05
8.57848e-07
2.60315e-06
2.79412e-05
7.66352e-07
1.72993e-06
2.67235e-05
6.85063e-07
1.27908e-06
2.57762e-05
6.14509e-07
1.00093e-06
2.50129e-05
5.53423e-07
8.11467e-07
2.43818e-05
5.00329e-07
6.75354e-07
2.38494e-05
4.5387e-07
5.7361e-07
2.33929e-05
4.12902e-07
4.95231e-07
2.29962e-05
3.76492e-07
4.33366e-07
2.26475e-05
3.43895e-07
3.83547e-07
2.2338e-05
3.14512e-07
3.42738e-07
2.20609e-05
2.87866e-07
3.08819e-07
2.18109e-05
2.63574e-07
2.80265e-07
2.15839e-05
2.41328e-07
2.55958e-07
2.13766e-05
2.20877e-07
2.35059e-07
2.11862e-05
2.02018e-07
2.16929e-07
2.10105e-05
1.84583e-07
2.01076e-07
2.08478e-05
1.68433e-07
1.87112e-07
2.06964e-05
1.53449e-07
1.7473e-07
2.05551e-05
1.39534e-07
1.63683e-07
2.04228e-05
1.26603e-07
1.53773e-07
2.02986e-05
1.14583e-07
1.44836e-07
2.01816e-05
1.03414e-07
1.36737e-07
2.00712e-05
9.30393e-08
1.29365e-07
1.99668e-05
8.34228e-08
1.22628e-07
1.98678e-05
7.45068e-08
1.16445e-07
1.97738e-05
6.63158e-08
1.10755e-07
1.96843e-05
5.86857e-08
1.05486e-07
1.9599e-05
5.19724e-08
1.00624e-07
1.95175e-05
4.51739e-08
9.60426e-08
1.94395e-05
4.08776e-08
9.19275e-08
1.93646e-05
3.20885e-08
8.76299e-08
1.92922e-05
3.72304e-08
8.50718e-08
1.92224e-05
6.77324e-09
7.72481e-08
1.91495e-05
7.01573e-08
8.78419e-08
-1.00984e-07
1.00648e-07
7.72584e-05
6.76336e-07
8.96011e-05
4.79939e-05
9.27346e-07
2.93747e-05
3.65735e-05
9.71905e-07
1.14944e-05
3.20109e-05
9.16792e-07
4.6033e-06
2.95174e-05
8.35222e-07
2.51607e-06
2.78758e-05
7.5205e-07
1.65594e-06
2.66708e-05
6.7422e-07
1.2158e-06
2.57347e-05
6.0465e-07
9.45996e-07
2.49817e-05
5.43508e-07
7.62925e-07
2.43603e-05
4.90044e-07
6.31637e-07
2.38374e-05
4.43242e-07
5.33521e-07
2.33904e-05
4.02095e-07
4.57869e-07
2.30031e-05
3.6571e-07
3.98065e-07
2.26638e-05
3.33325e-07
3.49815e-07
2.23638e-05
3.04314e-07
3.10217e-07
2.20963e-05
2.78162e-07
2.7725e-07
2.18559e-05
2.54452e-07
2.49464e-07
2.16386e-05
2.32845e-07
2.25792e-07
2.1441e-05
2.13067e-07
2.05437e-07
2.12603e-05
1.94893e-07
1.8779e-07
2.10944e-05
1.78141e-07
1.72379e-07
2.09413e-05
1.62657e-07
1.58829e-07
2.07996e-05
1.48319e-07
1.4685e-07
2.06679e-05
1.35019e-07
1.362e-07
2.05452e-05
1.22671e-07
1.26685e-07
2.04304e-05
1.112e-07
1.18146e-07
2.03228e-05
1.00544e-07
1.1045e-07
2.02218e-05
9.06473e-08
1.0349e-07
2.01265e-05
8.14753e-08
9.71701e-08
2.00366e-05
7.29749e-08
9.14142e-08
1.99516e-05
6.51707e-08
8.61572e-08
1.98711e-05
5.79176e-08
8.13336e-08
1.97946e-05
5.1546e-08
7.69151e-08
1.97218e-05
4.51769e-08
7.28087e-08
1.96524e-05
4.1119e-08
6.91107e-08
1.95857e-05
3.33787e-08
6.53802e-08
1.95223e-05
3.76297e-08
6.30885e-08
1.94605e-05
1.34604e-08
5.50986e-08
1.93951e-05
6.38178e-08
7.16813e-08
-6.02273e-08
2.80184e-08
7.71839e-05
5.19234e-07
8.96399e-05
4.78783e-05
7.76906e-07
2.9456e-05
3.64421e-05
8.3619e-07
1.1572e-05
3.18787e-05
8.04959e-07
4.67516e-06
2.93914e-05
7.43187e-07
2.57942e-06
2.77584e-05
6.74627e-07
1.71039e-06
2.65629e-05
6.07811e-07
1.26191e-06
2.56361e-05
5.46582e-07
9.84848e-07
2.48919e-05
4.91929e-07
7.95748e-07
2.42788e-05
4.43663e-07
6.59541e-07
2.37634e-05
4.01152e-07
5.57446e-07
2.33233e-05
3.63639e-07
4.78584e-07
2.29424e-05
3.30399e-07
4.16184e-07
2.26091e-05
3.00787e-07
3.65826e-07
2.23147e-05
2.74252e-07
3.24501e-07
2.20524e-05
2.50337e-07
2.90105e-07
2.18171e-05
2.28665e-07
2.61121e-07
2.16046e-05
2.08928e-07
2.36433e-07
2.14116e-05
1.90874e-07
2.15201e-07
2.12354e-05
1.74296e-07
1.96787e-07
2.10738e-05
1.59025e-07
1.80693e-07
2.0925e-05
1.44921e-07
1.66529e-07
2.07875e-05
1.31869e-07
1.53988e-07
2.06599e-05
1.19772e-07
1.42816e-07
2.05412e-05
1.0855e-07
1.32813e-07
2.04305e-05
9.81332e-08
1.23815e-07
2.03268e-05
8.84668e-08
1.15683e-07
2.02297e-05
7.9501e-08
1.08303e-07
2.01384e-05
7.12042e-08
1.01581e-07
2.00524e-05
6.35318e-08
9.54376e-08
1.99712e-05
5.6509e-08
8.98039e-08
1.98945e-05
5.00139e-08
8.4619e-08
1.98219e-05
4.43465e-08
7.98422e-08
1.97529e-05
3.87713e-08
7.541e-08
1.96874e-05
3.52811e-08
7.13334e-08
1.96244e-05
2.89892e-08
6.73692e-08
1.95648e-05
3.26875e-08
6.44962e-08
1.95071e-05
1.51567e-08
5.60893e-08
1.94427e-05
5.43191e-08
7.38789e-08
-2.78226e-08
2.89666e-09
7.71344e-05
4.18799e-07
8.96327e-05
4.78011e-05
6.65806e-07
2.94444e-05
3.63597e-05
7.38728e-07
1.15389e-05
3.18013e-05
7.28504e-07
4.63483e-06
2.93215e-05
6.84088e-07
2.53887e-06
2.76961e-05
6.27792e-07
1.67223e-06
2.65073e-05
5.69486e-07
1.22714e-06
2.55861e-05
5.14088e-07
9.53663e-07
2.48466e-05
4.63518e-07
7.67968e-07
2.42372e-05
4.18245e-07
6.348e-07
2.3725e-05
3.78059e-07
5.3532e-07
2.32875e-05
3.42468e-07
4.58663e-07
2.29089e-05
3.10906e-07
3.98101e-07
2.25776e-05
2.82818e-07
3.49261e-07
2.22849e-05
2.57707e-07
3.09187e-07
2.20243e-05
2.35142e-07
2.75819e-07
2.17905e-05
2.14761e-07
2.47685e-07
2.15795e-05
1.96262e-07
2.237e-07
2.13879e-05
1.79393e-07
2.03057e-07
2.12131e-05
1.63949e-07
1.85138e-07
2.10529e-05
1.49761e-07
1.69466e-07
2.09055e-05
1.36688e-07
1.55667e-07
2.07693e-05
1.24614e-07
1.43445e-07
2.06431e-05
1.13442e-07
1.32558e-07
2.05257e-05
1.03091e-07
1.22811e-07
2.04163e-05
9.34941e-08
1.14049e-07
2.0314e-05
8.45962e-08
1.06136e-07
2.02182e-05
7.63501e-08
9.89661e-08
2.01283e-05
6.8726e-08
9.24432e-08
2.00436e-05
6.16831e-08
8.64921e-08
1.99638e-05
5.52448e-08
8.10454e-08
1.98885e-05
4.93116e-08
7.60475e-08
1.98172e-05
4.41462e-08
7.14486e-08
1.97496e-05
3.91569e-08
6.72126e-08
1.96856e-05
3.60012e-08
6.32821e-08
1.96242e-05
3.08538e-08
5.95925e-08
1.95664e-05
3.37183e-08
5.67155e-08
1.95114e-05
2.1433e-08
4.87464e-08
1.9449e-05
5.03796e-08
6.63564e-08
-1.8922e-09
-1.65272e-08
7.71072e-05
3.33323e-07
8.9645e-05
4.77479e-05
5.50838e-07
2.94742e-05
3.62918e-05
6.23613e-07
1.15713e-05
3.17276e-05
6.24066e-07
4.66859e-06
2.92469e-05
5.91962e-07
2.57285e-06
2.76232e-05
5.46644e-07
1.70482e-06
2.64375e-05
4.97718e-07
1.25747e-06
2.55201e-05
4.50165e-07
9.8138e-07
2.47843e-05
4.06178e-07
7.93049e-07
2.41787e-05
3.66494e-07
6.57388e-07
2.367e-05
3.31118e-07
5.55649e-07
2.32357e-05
2.99725e-07
4.76991e-07
2.28601e-05
2.71867e-07
4.14685e-07
2.25315e-05
2.47081e-07
3.64338e-07
2.22413e-05
2.24938e-07
3.22969e-07
2.19829e-05
2.05059e-07
2.8849e-07
2.17511e-05
1.87122e-07
2.59401e-07
2.15419e-05
1.70856e-07
2.34593e-07
2.13521e-05
1.56037e-07
2.13238e-07
2.11788e-05
1.4248e-07
1.94697e-07
2.10201e-05
1.30034e-07
1.78481e-07
2.0874e-05
1.18573e-07
1.642e-07
2.07391e-05
1.07993e-07
1.51545e-07
2.0614e-05
9.82087e-08
1.40268e-07
2.04978e-05
8.91481e-08
1.30168e-07
2.03895e-05
8.07523e-08
1.21079e-07
2.02882e-05
7.29734e-08
1.12863e-07
2.01934e-05
6.57706e-08
1.05408e-07
2.01044e-05
5.91192e-08
9.86175e-08
2.00207e-05
5.29864e-08
9.24103e-08
1.99418e-05
4.73947e-08
8.67204e-08
1.98674e-05
4.22686e-08
8.14902e-08
1.9797e-05
3.78336e-08
7.66594e-08
1.97303e-05
3.36346e-08
7.22167e-08
1.96673e-05
3.10161e-08
6.80393e-08
1.96068e-05
2.7093e-08
6.42039e-08
1.95501e-05
2.95034e-08
6.09301e-08
1.9497e-05
2.15521e-08
5.29654e-08
1.94343e-05
4.34275e-08
6.97201e-08
1.17688e-08
-1.8895e-08
7.70866e-05
2.69007e-07
8.96444e-05
4.77072e-05
4.56066e-07
2.94742e-05
3.62416e-05
5.26899e-07
1.15623e-05
3.16757e-05
5.36106e-07
4.65387e-06
2.91969e-05
5.15226e-07
2.55554e-06
2.75768e-05
4.80367e-07
1.68639e-06
2.63951e-05
4.40407e-07
1.23897e-06
2.54816e-05
4.00232e-07
9.63466e-07
2.47494e-05
3.62255e-07
7.76107e-07
2.41468e-05
3.27491e-07
6.41602e-07
2.36407e-05
2.96198e-07
5.41064e-07
2.32086e-05
2.68254e-07
4.63578e-07
2.28347e-05
2.43365e-07
4.02365e-07
2.25076e-05
2.21179e-07
3.53015e-07
2.22186e-05
2.01348e-07
3.12539e-07
2.19613e-05
1.83553e-07
2.78852e-07
2.17304e-05
1.67513e-07
2.50456e-07
2.15221e-05
1.52989e-07
2.26259e-07
2.13329e-05
1.39779e-07
2.05436e-07
2.11603e-05
1.27716e-07
1.87362e-07
2.10021e-05
1.1666e-07
1.71555e-07
2.08565e-05
1.06496e-07
1.57634e-07
2.07221e-05
9.71282e-08
1.45298e-07
2.05975e-05
8.84765e-08
1.34305e-07
2.04817e-05
8.0475e-08
1.2446e-07
2.03738e-05
7.30692e-08
1.15601e-07
2.0273e-05
6.62144e-08
1.07596e-07
2.01786e-05
5.98737e-08
1.00334e-07
2.00899e-05
5.40246e-08
9.37212e-08
2.00066e-05
4.86389e-08
8.76833e-08
1.99281e-05
4.37366e-08
8.21483e-08
1.9854e-05
3.92606e-08
7.70682e-08
1.97841e-05
3.5398e-08
7.2377e-08
1.97178e-05
3.18093e-08
6.80797e-08
1.96553e-05
2.95538e-08
6.40155e-08
1.95955e-05
2.65135e-08
6.03683e-08
1.95395e-05
2.83527e-08
5.71077e-08
1.94883e-05
2.32912e-08
4.95513e-08
1.94267e-05
3.92333e-08
6.57734e-08
2.02493e-08
-2.54449e-08
7.7075e-05
2.11936e-07
8.96488e-05
4.76803e-05
3.65207e-07
2.94855e-05
3.62044e-05
4.27615e-07
1.15751e-05
3.16333e-05
4.39349e-07
4.66786e-06
2.91524e-05
4.25255e-07
2.57086e-06
2.75322e-05
3.98263e-07
1.70232e-06
2.63516e-05
3.66073e-07
1.25491e-06
2.54398e-05
3.33062e-07
9.79004e-07
2.47096e-05
3.01508e-07
7.9096e-07
2.4109e-05
2.72444e-07
6.55608e-07
2.36049e-05
2.46202e-07
5.54154e-07
2.31747e-05
2.22743e-07
4.75738e-07
2.28025e-05
2.01854e-07
4.13628e-07
2.2477e-05
1.83251e-07
3.63433e-07
2.21896e-05
1.66646e-07
3.22178e-07
2.19336e-05
1.51769e-07
2.87782e-07
2.17039e-05
1.38379e-07
2.58751e-07
2.14967e-05
1.26272e-07
2.33983e-07
2.13085e-05
1.15273e-07
2.12651e-07
2.11369e-05
1.05239e-07
1.94125e-07
2.09796e-05
9.6051e-08
1.77915e-07
2.08348e-05
8.76096e-08
1.63634e-07
2.07011e-05
7.98333e-08
1.50979e-07
2.05773e-05
7.2655e-08
1.39698e-07
2.04621e-05
6.60189e-08
1.29592e-07
2.03548e-05
5.98791e-08
1.20497e-07
2.02546e-05
5.41989e-08
1.12277e-07
2.01607e-05
4.89482e-08
1.04818e-07
2.00726e-05
4.41089e-08
9.80249e-08
1.99897e-05
3.96601e-08
9.18168e-08
1.99117e-05
3.56197e-08
8.61233e-08
1.98381e-05
3.19472e-08
8.08966e-08
1.97687e-05
2.87965e-08
7.60604e-08
1.97029e-05
2.59244e-08
7.16351e-08
1.96409e-05
2.41464e-08
6.74198e-08
1.95818e-05
2.19565e-08
6.36846e-08
1.95265e-05
2.34812e-08
6.01883e-08
1.94765e-05
2.05756e-08
5.26596e-08
1.94148e-05
3.25469e-08
6.8369e-08
2.17412e-08
-2.46521e-08
7.70659e-05
1.63594e-07
8.96492e-05
4.76591e-05
2.84858e-07
2.94871e-05
3.61757e-05
3.3775e-07
1.15733e-05
3.16013e-05
3.5061e-07
4.66307e-06
2.91199e-05
3.4239e-07
2.56427e-06
2.75008e-05
3.22914e-07
1.69442e-06
2.63223e-05
2.98448e-07
1.2462e-06
2.54128e-05
2.72676e-07
9.69888e-07
2.46849e-05
2.47616e-07
7.81771e-07
2.40865e-05
2.24259e-07
6.46581e-07
2.35843e-05
2.0299e-07
5.45444e-07
2.31557e-05
1.8386e-07
4.67443e-07
2.2785e-05
1.66751e-07
4.05797e-07
2.24607e-05
1.5147e-07
3.56081e-07
2.21743e-05
1.37805e-07
3.153e-07
2.19191e-05
1.25547e-07
2.8136e-07
2.16902e-05
1.1451e-07
2.52757e-07
2.14836e-05
1.0453e-07
2.28382e-07
2.1296e-05
9.54679e-08
2.07411e-07
2.11248e-05
8.72054e-08
1.89212e-07
2.09679e-05
7.96448e-08
1.73298e-07
2.08235e-05
7.27044e-08
1.59285e-07
2.06902e-05
6.63164e-08
1.46868e-07
2.05666e-05
6.04248e-08
1.35803e-07
2.04517e-05
5.49827e-08
1.25893e-07
2.03447e-05
4.99516e-08
1.16974e-07
2.02447e-05
4.53013e-08
1.08915e-07
2.0151e-05
4.10061e-08
1.01601e-07
2.00631e-05
3.70508e-08
9.49403e-08
1.99805e-05
3.34191e-08
8.88564e-08
1.99027e-05
3.01255e-08
8.32775e-08
1.98294e-05
2.71417e-08
7.81574e-08
1.97602e-05
2.45868e-08
7.34189e-08
1.96947e-05
2.22932e-08
6.90932e-08
1.9633e-05
2.08634e-08
6.4957e-08
1.95744e-05
1.9259e-08
6.13435e-08
1.95196e-05
2.03831e-08
5.78706e-08
1.94709e-05
1.87272e-08
5.0597e-08
1.94102e-05
2.72367e-08
6.60254e-08
2.10709e-08
-2.79922e-08
7.70605e-05
1.18922e-07
8.96509e-05
4.76453e-05
2.08343e-07
2.94917e-05
3.61555e-05
2.4902e-07
1.15785e-05
3.15776e-05
2.59885e-07
4.66868e-06
2.90944e-05
2.54857e-07
2.5707e-06
2.74749e-05
2.40971e-07
1.7015e-06
2.62966e-05
2.22998e-07
1.25368e-06
2.53879e-05
2.038e-07
9.77572e-07
2.46611e-05
1.8499e-07
7.89472e-07
2.40638e-05
1.67389e-07
6.54151e-07
2.35627e-05
1.51334e-07
5.52775e-07
2.31352e-05
1.36892e-07
4.7446e-07
2.27655e-05
1.23987e-07
4.12455e-07
2.24421e-05
1.12479e-07
3.62363e-07
2.21565e-05
1.02205e-07
3.21201e-07
2.19022e-05
9.30071e-08
2.86889e-07
2.1674e-05
8.47403e-08
2.5793e-07
2.14681e-05
7.72777e-08
2.33223e-07
2.12811e-05
7.05109e-08
2.11944e-07
2.11105e-05
6.43488e-08
1.93461e-07
2.09541e-05
5.87157e-08
1.77288e-07
2.08102e-05
5.35488e-08
1.63039e-07
2.06773e-05
4.87959e-08
1.50409e-07
2.05542e-05
4.44142e-08
1.39151e-07
2.04397e-05
4.03685e-08
1.29066e-07
2.03331e-05
3.66297e-08
1.19988e-07
2.02334e-05
3.31745e-08
1.11784e-07
2.01401e-05
2.99849e-08
1.04339e-07
2.00525e-05
2.70498e-08
9.7558e-08
1.99702e-05
2.43579e-08
9.13626e-08
1.98928e-05
2.19203e-08
8.56799e-08
1.98197e-05
1.97202e-08
8.04659e-08
1.97508e-05
1.78447e-08
7.56356e-08
1.96857e-05
1.61854e-08
7.12296e-08
1.96244e-05
1.51666e-08
6.70025e-08
1.95662e-05
1.41074e-08
6.3331e-08
1.95119e-05
1.49723e-08
5.9724e-08
1.9464e-05
1.41835e-08
5.24498e-08
1.94034e-05
2.02367e-08
6.76194e-08
1.70035e-08
-2.72889e-08
7.70565e-05
7.79159e-08
8.96512e-05
4.7635e-05
1.3693e-07
2.94929e-05
3.61408e-05
1.64867e-07
1.15784e-05
3.15604e-05
1.72952e-07
4.66733e-06
2.90763e-05
1.70477e-07
2.56847e-06
2.74569e-05
1.61877e-07
1.6985e-06
2.62795e-05
1.50343e-07
1.25007e-06
2.53719e-05
1.37812e-07
9.73537e-07
2.46463e-05
1.25401e-07
7.85171e-07
2.40503e-05
1.13697e-07
6.49724e-07
2.35503e-05
1.02959e-07
5.48336e-07
2.31239e-05
9.32553e-08
4.70093e-07
2.27551e-05
8.45519e-08
4.08222e-07
2.24325e-05
7.67676e-08
3.58303e-07
2.21476e-05
6.98023e-08
3.17338e-07
2.18938e-05
6.35553e-08
2.83234e-07
2.16661e-05
5.79335e-08
2.54483e-07
2.14606e-05
5.28542e-08
2.29982e-07
2.12739e-05
4.8246e-08
2.08898e-07
2.11036e-05
4.40483e-08
1.90598e-07
2.09475e-05
4.02111e-08
1.74595e-07
2.08039e-05
3.66918e-08
1.60505e-07
2.06712e-05
3.34558e-08
1.48017e-07
2.05483e-05
3.04734e-08
1.36892e-07
2.0434e-05
2.77211e-08
1.26926e-07
2.03275e-05
2.51786e-08
1.17958e-07
2.0228e-05
2.28309e-08
1.09852e-07
2.01348e-05
2.06641e-08
1.02497e-07
2.00474e-05
1.8672e-08
9.57989e-08
1.99652e-05
1.68461e-08
8.96794e-08
1.98879e-05
1.51942e-08
8.4066e-08
1.9815e-05
1.37057e-08
7.89159e-08
1.97462e-05
1.24383e-08
7.41446e-08
1.96813e-05
1.13266e-08
6.98e-08
1.96202e-05
1.06391e-08
6.5619e-08
1.95623e-05
9.9662e-09
6.20139e-08
1.95083e-05
1.05102e-08
5.84272e-08
1.94611e-05
1.01331e-08
5.12875e-08
1.94011e-05
1.38887e-08
6.63173e-08
1.22043e-08
-2.90973e-08
7.70544e-05
3.84661e-08
8.96517e-05
4.76291e-05
6.76209e-08
2.94946e-05
3.61318e-05
8.17628e-08
1.15803e-05
3.15496e-05
8.58603e-08
4.66932e-06
2.90645e-05
8.47278e-08
2.57081e-06
2.74448e-05
8.04676e-08
1.70115e-06
2.62675e-05
7.46982e-08
1.25298e-06
2.53602e-05
6.84021e-08
9.7663e-07
2.46351e-05
6.2154e-08
7.88373e-07
2.40396e-05
5.62591e-08
6.52967e-07
2.35401e-05
5.08539e-08
5.51555e-07
2.31142e-05
4.59751e-08
4.73243e-07
2.27459e-05
4.16082e-08
4.11266e-07
2.24237e-05
3.77102e-08
3.61215e-07
2.21392e-05
3.42303e-08
3.20107e-07
2.18858e-05
3.11163e-08
2.8585e-07
2.16584e-05
2.83199e-08
2.56946e-07
2.14532e-05
2.5798e-08
2.32295e-07
2.12668e-05
2.35137e-08
2.11067e-07
2.10968e-05
2.1436e-08
1.92634e-07
2.0941e-05
1.95386e-08
1.76505e-07
2.07976e-05
1.78005e-08
1.62297e-07
2.06651e-05
1.6203e-08
1.49703e-07
2.05424e-05
1.47318e-08
1.38478e-07
2.04283e-05
1.33745e-08
1.28422e-07
2.0322e-05
1.21214e-08
1.19372e-07
2.02227e-05
1.09646e-08
1.11192e-07
2.01297e-05
9.89745e-09
1.03769e-07
2.00424e-05
8.91688e-09
9.70088e-08
1.99604e-05
8.01895e-09
9.0832e-08
1.98832e-05
7.20752e-09
8.51663e-08
1.98105e-05
6.47811e-09
7.99689e-08
1.97419e-05
5.85939e-09
7.51526e-08
1.96772e-05
5.32075e-09
7.07651e-08
1.96163e-05
4.99337e-09
6.65409e-08
1.95587e-05
4.6859e-09
6.29072e-08
1.95049e-05
4.97175e-09
5.9257e-08
1.94581e-05
4.85617e-09
5.2111e-08
1.93982e-05
6.72863e-09
6.70189e-08
6.06342e-09
-2.88189e-08
7.70533e-05
5.32841e-14
8.96518e-05
4.76259e-05
1.95783e-13
2.9495e-05
3.61273e-05
1.77422e-13
1.15804e-05
3.15442e-05
1.85413e-14
4.66896e-06
2.90587e-05
6.23369e-14
2.57015e-06
2.7439e-05
6.41276e-14
1.70023e-06
2.62619e-05
-1.4846e-13
1.25181e-06
2.5355e-05
2.35887e-13
9.75263e-07
2.46303e-05
1.80442e-14
7.86863e-07
2.40352e-05
1.15611e-13
6.51361e-07
2.35362e-05
1.11558e-13
5.49898e-07
2.31106e-05
5.23398e-14
4.71567e-07
2.27426e-05
-1.30538e-13
4.09599e-07
2.24207e-05
-7.25802e-14
3.59577e-07
2.21364e-05
8.32363e-15
3.18512e-07
2.18832e-05
6.18728e-14
2.84308e-07
2.16561e-05
3.42938e-14
2.55463e-07
2.1451e-05
-1.23609e-13
2.30872e-07
2.12648e-05
-2.24177e-13
2.09706e-07
2.10949e-05
-1.15781e-13
1.91332e-07
2.09392e-05
7.47064e-14
1.7526e-07
2.07959e-05
1.09313e-13
1.61107e-07
2.06635e-05
8.29473e-14
1.48564e-07
2.05409e-05
1.79511e-13
1.37389e-07
2.04269e-05
-6.02246e-14
1.27378e-07
2.03206e-05
6.5589e-14
1.18369e-07
2.02214e-05
2.66891e-15
1.10229e-07
2.01284e-05
1.39272e-13
1.02842e-07
2.00412e-05
-1.02607e-13
9.61142e-08
1.99593e-05
-9.50117e-14
8.99702e-08
1.98821e-05
1.64587e-13
8.4333e-08
1.98095e-05
2.94773e-13
7.91633e-08
1.9741e-05
2.3324e-13
7.43721e-08
1.96763e-05
3.87256e-13
7.00116e-08
1.96154e-05
4.01415e-13
6.58074e-08
1.95579e-05
5.39397e-13
6.22025e-08
1.95043e-05
4.98367e-13
5.85635e-08
1.94577e-05
5.0221e-13
5.14706e-08
1.93981e-05
5.75861e-13
6.63067e-08
2.803e-13
-2.97119e-08
7.70533e-05
-3.84661e-08
8.96518e-05
4.76259e-05
-6.76209e-08
2.9495e-05
3.61273e-05
-8.17629e-08
1.15804e-05
3.15442e-05
-8.58604e-08
4.66896e-06
2.90587e-05
-8.47276e-08
2.57016e-06
2.7439e-05
-8.04674e-08
1.70023e-06
2.62619e-05
-7.46979e-08
1.25181e-06
2.5355e-05
-6.84021e-08
9.75263e-07
2.46303e-05
-6.21539e-08
7.86863e-07
2.40352e-05
-5.6259e-08
6.51362e-07
2.35362e-05
-5.08536e-08
5.49898e-07
2.31106e-05
-4.59751e-08
4.71567e-07
2.27426e-05
-4.16078e-08
4.09599e-07
2.24207e-05
-3.77101e-08
3.59577e-07
2.21364e-05
-3.42301e-08
3.18511e-07
2.18832e-05
-3.11164e-08
2.84307e-07
2.16561e-05
-2.83199e-08
2.55463e-07
2.1451e-05
-2.57981e-08
2.30872e-07
2.12648e-05
-2.35137e-08
2.09705e-07
2.10949e-05
-2.14358e-08
1.91332e-07
2.09392e-05
-1.95386e-08
1.75261e-07
2.07959e-05
-1.78002e-08
1.61108e-07
2.06635e-05
-1.62029e-08
1.48565e-07
2.05409e-05
-1.47317e-08
1.37389e-07
2.04269e-05
-1.33742e-08
1.27378e-07
2.03206e-05
-1.21213e-08
1.18369e-07
2.02214e-05
-1.09643e-08
1.10229e-07
2.01284e-05
-9.89708e-09
1.02842e-07
2.00412e-05
-8.91655e-09
9.61142e-08
1.99593e-05
-8.01852e-09
8.99695e-08
1.98821e-05
-7.20711e-09
8.43336e-08
1.98095e-05
-6.47787e-09
7.9164e-08
1.9741e-05
-5.85906e-09
7.43737e-08
1.96763e-05
-5.32044e-09
7.00121e-08
1.96154e-05
-4.99268e-09
6.58079e-08
1.95579e-05
-4.68518e-09
6.22025e-08
1.95043e-05
-4.97082e-09
5.85632e-08
1.94577e-05
-4.85517e-09
5.14704e-08
1.93981e-05
-6.72735e-09
6.63061e-08
-6.06259e-09
-2.9711e-08
7.70544e-05
-7.7916e-08
8.96517e-05
4.76291e-05
-1.3693e-07
2.94946e-05
3.61318e-05
-1.64867e-07
1.15803e-05
3.15496e-05
-1.72951e-07
4.66932e-06
2.90645e-05
-1.70477e-07
2.5708e-06
2.74448e-05
-1.61877e-07
1.70115e-06
2.62675e-05
-1.50343e-07
1.25298e-06
2.53602e-05
-1.37812e-07
9.76629e-07
2.46351e-05
-1.25401e-07
7.88373e-07
2.40396e-05
-1.13697e-07
6.52967e-07
2.35401e-05
-1.02959e-07
5.51556e-07
2.31142e-05
-9.32551e-08
4.73244e-07
2.27459e-05
-8.45519e-08
4.11266e-07
2.24237e-05
-7.67675e-08
3.61215e-07
2.21392e-05
-6.98023e-08
3.20108e-07
2.18858e-05
-6.35554e-08
2.85849e-07
2.16584e-05
-5.79336e-08
2.56946e-07
2.14532e-05
-5.28542e-08
2.32294e-07
2.12668e-05
-4.82459e-08
2.11067e-07
2.10968e-05
-4.40483e-08
1.92634e-07
2.0941e-05
-4.0211e-08
1.76505e-07
2.07976e-05
-3.66918e-08
1.62296e-07
2.06651e-05
-3.34555e-08
1.49703e-07
2.05424e-05
-3.04733e-08
1.38478e-07
2.04283e-05
-2.77208e-08
1.28423e-07
2.0322e-05
-2.51784e-08
1.19373e-07
2.02227e-05
-2.28307e-08
1.11192e-07
2.01297e-05
-2.06641e-08
1.03769e-07
2.00424e-05
-1.86717e-08
9.7008e-08
1.99604e-05
-1.68459e-08
9.08318e-08
1.98832e-05
-1.51939e-08
8.51666e-08
1.98105e-05
-1.37057e-08
7.9969e-08
1.97419e-05
-1.2438e-08
7.51515e-08
1.96772e-05
-1.13262e-08
7.07662e-08
1.96163e-05
-1.06388e-08
6.65403e-08
1.95587e-05
-9.96561e-09
6.29065e-08
1.95049e-05
-1.05098e-08
5.92567e-08
1.94581e-05
-1.01325e-08
5.21123e-08
1.93982e-05
-1.38879e-08
6.70208e-08
-1.22039e-08
-2.88183e-08
7.70565e-05
-1.18922e-07
8.96512e-05
4.7635e-05
-2.08343e-07
2.94929e-05
3.61408e-05
-2.4902e-07
1.15784e-05
3.15604e-05
-2.59885e-07
4.66733e-06
2.90763e-05
-2.54857e-07
2.56847e-06
2.74569e-05
-2.40971e-07
1.6985e-06
2.62795e-05
-2.22998e-07
1.25007e-06
2.53719e-05
-2.038e-07
9.73537e-07
2.46463e-05
-1.8499e-07
7.85171e-07
2.40503e-05
-1.67389e-07
6.49725e-07
2.35503e-05
-1.51334e-07
5.48336e-07
2.31239e-05
-1.36892e-07
4.70093e-07
2.27551e-05
-1.23987e-07
4.08222e-07
2.24325e-05
-1.12479e-07
3.58302e-07
2.21476e-05
-1.02205e-07
3.17339e-07
2.18938e-05
-9.3007e-08
2.83234e-07
2.16661e-05
-8.47402e-08
2.54483e-07
2.14606e-05
-7.72777e-08
2.29981e-07
2.12739e-05
-7.0511e-08
2.08898e-07
2.11036e-05
-6.43491e-08
1.90599e-07
2.09475e-05
-5.87159e-08
1.74597e-07
2.08039e-05
-5.3549e-08
1.60505e-07
2.06712e-05
-4.87961e-08
1.48019e-07
2.05483e-05
-4.44141e-08
1.36892e-07
2.0434e-05
-4.03683e-08
1.26926e-07
2.03275e-05
-3.66292e-08
1.17958e-07
2.0228e-05
-3.31744e-08
1.09851e-07
2.01348e-05
-2.99846e-08
1.02498e-07
2.00474e-05
-2.70496e-08
9.57997e-08
1.99652e-05
-2.43575e-08
8.96786e-08
1.98879e-05
-2.19202e-08
8.40661e-08
1.9815e-05
-1.97199e-08
7.89165e-08
1.97462e-05
-1.78445e-08
7.41447e-08
1.96813e-05
-1.61851e-08
6.9799e-08
1.96202e-05
-1.51661e-08
6.56188e-08
1.95623e-05
-1.41069e-08
6.2015e-08
1.95083e-05
-1.49715e-08
5.84273e-08
1.94611e-05
-1.41828e-08
5.12869e-08
1.94011e-05
-2.02359e-08
6.63175e-08
-1.70029e-08
-2.90972e-08
7.70605e-05
-1.63594e-07
8.96509e-05
4.76453e-05
-2.84859e-07
2.94917e-05
3.61555e-05
-3.3775e-07
1.15785e-05
3.15776e-05
-3.5061e-07
4.66868e-06
2.90944e-05
-3.4239e-07
2.5707e-06
2.74749e-05
-3.22914e-07
1.7015e-06
2.62966e-05
-2.98448e-07
1.25368e-06
2.53879e-05
-2.72676e-07
9.77573e-07
2.46611e-05
-2.47617e-07
7.89473e-07
2.40638e-05
-2.24259e-07
6.54152e-07
2.35627e-05
-2.0299e-07
5.52775e-07
2.31352e-05
-1.8386e-07
4.74459e-07
2.27655e-05
-1.66751e-07
4.12456e-07
2.24421e-05
-1.5147e-07
3.62362e-07
2.21565e-05
-1.37805e-07
3.21201e-07
2.19022e-05
-1.25547e-07
2.86889e-07
2.1674e-05
-1.1451e-07
2.57929e-07
2.14681e-05
-1.0453e-07
2.33222e-07
2.12811e-05
-9.5468e-08
2.11944e-07
2.11105e-05
-8.72053e-08
1.93462e-07
2.09541e-05
-7.96443e-08
1.77288e-07
2.08102e-05
-7.27041e-08
1.63039e-07
2.06773e-05
-6.63164e-08
1.50409e-07
2.05542e-05
-6.04245e-08
1.39152e-07
2.04397e-05
-5.49822e-08
1.29066e-07
2.03331e-05
-4.99514e-08
1.19989e-07
2.02334e-05
-4.53009e-08
1.11784e-07
2.01401e-05
-4.10056e-08
1.04339e-07
2.00525e-05
-3.70504e-08
9.75568e-08
1.99702e-05
-3.3419e-08
9.13618e-08
1.98928e-05
-3.01251e-08
8.56797e-08
1.98197e-05
-2.71413e-08
8.04654e-08
1.97508e-05
-2.45861e-08
7.56355e-08
1.96857e-05
-2.22926e-08
7.12304e-08
1.96244e-05
-2.0863e-08
6.70033e-08
1.95662e-05
-1.92584e-08
6.33307e-08
1.95119e-05
-2.03823e-08
5.97242e-08
1.9464e-05
-1.87267e-08
5.24498e-08
1.94034e-05
-2.7236e-08
6.76191e-08
-2.10703e-08
-2.72905e-08
7.70659e-05
-2.11937e-07
8.96492e-05
4.76591e-05
-3.65207e-07
2.94871e-05
3.61757e-05
-4.27615e-07
1.15733e-05
3.16013e-05
-4.39349e-07
4.66307e-06
2.91199e-05
-4.25255e-07
2.56427e-06
2.75008e-05
-3.98263e-07
1.69442e-06
2.63223e-05
-3.66073e-07
1.2462e-06
2.54128e-05
-3.33062e-07
9.69889e-07
2.46849e-05
-3.01508e-07
7.81771e-07
2.40865e-05
-2.72444e-07
6.4658e-07
2.35843e-05
-2.46202e-07
5.45445e-07
2.31557e-05
-2.22743e-07
4.67443e-07
2.2785e-05
-2.01853e-07
4.05797e-07
2.24607e-05
-1.83251e-07
3.5608e-07
2.21743e-05
-1.66646e-07
3.153e-07
2.19191e-05
-1.51769e-07
2.81361e-07
2.16902e-05
-1.38379e-07
2.52756e-07
2.14836e-05
-1.26271e-07
2.28383e-07
2.1296e-05
-1.15273e-07
2.07412e-07
2.11248e-05
-1.05239e-07
1.89212e-07
2.09679e-05
-9.60511e-08
1.73299e-07
2.08235e-05
-8.76096e-08
1.59285e-07
2.06902e-05
-7.98334e-08
1.46868e-07
2.05666e-05
-7.26549e-08
1.35804e-07
2.04517e-05
-6.60188e-08
1.25894e-07
2.03447e-05
-5.98787e-08
1.16975e-07
2.02447e-05
-5.41986e-08
1.08915e-07
2.0151e-05
-4.8948e-08
1.016e-07
2.00631e-05
-4.41088e-08
9.494e-08
1.99805e-05
-3.96598e-08
8.88562e-08
1.99027e-05
-3.56195e-08
8.32771e-08
1.98294e-05
-3.1947e-08
7.81574e-08
1.97602e-05
-2.87964e-08
7.34189e-08
1.96947e-05
-2.59243e-08
6.90945e-08
1.9633e-05
-2.41456e-08
6.49576e-08
1.95744e-05
-2.19562e-08
6.13438e-08
1.95196e-05
-2.34808e-08
5.78703e-08
1.94709e-05
-2.05751e-08
5.05965e-08
1.94102e-05
-3.25462e-08
6.60243e-08
-2.17411e-08
-2.79926e-08
7.7075e-05
-2.69007e-07
8.96488e-05
4.76803e-05
-4.56066e-07
2.94855e-05
3.62044e-05
-5.26899e-07
1.15751e-05
3.16333e-05
-5.36106e-07
4.66786e-06
2.91524e-05
-5.15226e-07
2.57086e-06
2.75322e-05
-4.80367e-07
1.70232e-06
2.63516e-05
-4.40407e-07
1.25491e-06
2.54398e-05
-4.00232e-07
9.79004e-07
2.47096e-05
-3.62255e-07
7.9096e-07
2.4109e-05
-3.27491e-07
6.55608e-07
2.36049e-05
-2.96198e-07
5.54153e-07
2.31747e-05
-2.68254e-07
4.75738e-07
2.28025e-05
-2.43365e-07
4.13627e-07
2.2477e-05
-2.21179e-07
3.63432e-07
2.21896e-05
-2.01348e-07
3.22177e-07
2.19336e-05