/*--------------------------------*- C++ -*----------------------------------*\
| =========                 |                                                 |
| \\      /  F ield         | OpenFOAM: The Open Source CFD Toolbox           |
|  \\    /   O peration     | Version:  5.0                                   |
|   \\  /    A nd           | Web:      www.OpenFOAM.org                      |
|    \\/     M anipulation  |                                                 |
\*---------------------------------------------------------------------------*/
FoamFile
{
    version     2.0;
    format      ascii;
    class       volScalarField;
    location    "400/porous";
    object      T;
}
// * * * * * * * * * * * * * * * * * * * * * * * * * * * * * * * * * * * * * //

dimensions      [0 0 0 1 0 0 0];

internalField   nonuniform List<scalar> 
36000
(
400
400
400
400
399.999
399.572
399.189
398.838
398.506
398.186
397.875
397.57
397.27
396.973
396.68
396.391
396.105
395.82
395.539
395.26
394.984
394.71
394.436
394.161
393.885
393.61
393.335
393.063
392.793
392.526
392.26
391.997
391.737
391.478
391.228
391.763
392.123
392.396
392.617
392.805
400
400
400
400
399.999
399.622
399.285
398.978
398.691
398.417
398.153
397.896
397.645
397.399
397.158
396.92
396.687
396.456
396.228
396.003
395.782
395.562
395.344
395.124
394.905
394.686
394.469
394.254
394.04
393.829
393.621
393.414
393.209
393.007
392.809
393.16
393.406
393.595
393.745
393.877
400
400
400
400
399.999
399.628
399.299
399.002
398.726
398.465
398.215
397.974
397.739
397.51
397.287
397.069
396.856
396.645
396.439
396.236
396.037
395.841
395.646
395.452
395.258
395.065
394.874
394.685
394.498
394.314
394.133
393.954
393.777
393.602
393.432
393.756
393.986
394.164
394.305
394.427
400
400
400
400
399.999
399.627
399.298
399.001
398.727
398.469
398.223
397.985
397.755
397.53
397.312
397.099
396.89
396.685
396.484
396.286
396.094
395.905
395.718
395.531
395.346
395.161
394.979
394.799
394.622
394.447
394.275
394.105
393.938
393.773
393.613
393.931
394.159
394.336
394.478
394.599
400
400
400
400
399.999
399.626
399.297
399
398.727
398.47
398.225
397.989
397.76
397.537
397.32
397.107
396.899
396.694
396.493
396.297
396.105
395.917
395.732
395.548
395.365
395.184
395.005
394.828
394.653
394.481
394.312
394.146
393.982
393.821
393.663
393.98
394.208
394.384
394.527
394.648
400
400
400
400
399.999
399.625
399.295
398.998
398.724
398.468
398.224
397.988
397.76
397.537
397.32
397.107
396.898
396.692
396.49
396.293
396.1
395.911
395.725
395.542
395.36
395.18
395.002
394.827
394.653
394.482
394.314
394.148
393.986
393.825
393.669
393.985
394.213
394.389
394.532
394.653
400
400
400
400
399.999
399.624
399.294
398.997
398.724
398.468
398.225
397.991
397.763
397.541
397.324
397.11
396.9
396.693
396.49
396.291
396.097
395.906
395.72
395.536
395.354
395.175
394.998
394.823
394.65
394.48
394.312
394.147
393.984
393.824
393.668
393.984
394.212
394.388
394.531
394.652
400
400
400
400
399.999
399.624
399.293
398.996
398.723
398.468
398.225
397.992
397.765
397.543
397.326
397.111
396.9
396.692
396.487
396.286
396.09
395.899
395.711
395.526
395.344
395.165
394.989
394.815
394.643
394.472
394.305
394.14
393.978
393.818
393.662
393.978
394.205
394.381
394.524
394.645
400
400
400
400
399.999
399.624
399.293
398.996
398.724
398.469
398.227
397.995
397.769
397.547
397.33
397.115
396.902
396.692
396.486
396.285
396.087
395.894
395.705
395.519
395.337
395.159
394.983
394.81
394.638
394.468
394.301
394.137
393.975
393.815
393.659
393.975
394.202
394.378
394.521
394.642
400
400
400
400
399.999
399.624
399.293
398.996
398.725
398.471
398.229
397.997
397.771
397.55
397.331
397.116
396.902
396.691
396.484
396.281
396.082
395.888
395.697
395.511
395.329
395.15
394.975
394.802
394.631
394.462
394.295
394.131
393.97
393.81
393.654
393.97
394.197
394.373
394.516
394.637
400
400
400
400
399.999
399.625
399.294
398.998
398.727
398.473
398.231
397.999
397.773
397.552
397.333
397.117
396.902
396.69
396.482
396.278
396.079
395.883
395.692
395.505
395.323
395.144
394.97
394.798
394.628
394.459
394.293
394.13
393.968
393.809
393.652
393.968
394.195
394.371
394.514
394.635
400
400
400
400
399.999
399.625
399.295
399
398.729
398.475
398.233
398
397.774
397.552
397.333
397.115
396.9
396.687
396.478
396.275
396.076
395.879
395.687
395.5
395.317
395.139
394.965
394.794
394.624
394.456
394.291
394.128
393.967
393.807
393.65
393.965
394.193
394.369
394.512
394.632
400
400
400
400
399.999
399.626
399.298
399.003
398.732
398.477
398.235
398.001
397.775
397.552
397.332
397.114
396.898
396.685
396.477
396.274
396.075
395.879
395.686
395.498
395.316
395.138
394.964
394.793
394.625
394.457
394.292
394.13
393.969
393.808
393.65
393.966
394.193
394.369
394.512
394.633
400
400
400
400
399.999
399.627
399.3
399.005
398.734
398.479
398.236
398.001
397.774
397.55
397.33
397.111
396.895
396.683
396.475
396.273
396.074
395.878
395.685
395.497
395.315
395.137
394.963
394.794
394.625
394.459
394.294
394.132
393.971
393.809
393.651
393.966
394.194
394.369
394.512
394.633
400
400
400
400
399.999
399.628
399.301
399.007
398.736
398.48
398.236
398.001
397.772
397.548
397.327
397.108
396.893
396.68
396.473
396.271
396.072
395.877
395.684
395.497
395.314
395.137
394.964
394.795
394.627
394.461
394.297
394.135
393.974
393.812
393.652
393.968
394.195
394.371
394.513
394.634
400
400
400
400
399.999
399.63
399.304
399.01
398.738
398.481
398.236
398
397.771
397.546
397.324
397.106
396.89
396.678
396.471
396.269
396.07
395.875
395.682
395.495
395.313
395.136
394.964
394.796
394.629
394.464
394.301
394.138
393.976
393.812
393.651
393.967
394.194
394.37
394.513
394.634
400
400
400
400
399.999
399.63
399.305
399.011
398.738
398.48
398.234
397.998
397.768
397.543
397.321
397.103
396.887
396.675
396.468
396.266
396.068
395.872
395.679
395.492
395.311
395.135
394.964
394.797
394.631
394.466
394.303
394.14
393.977
393.812
393.65
393.966
394.194
394.37
394.512
394.633
400
400
400
400
399.999
399.631
399.306
399.012
398.738
398.48
398.233
397.996
397.766
397.541
397.32
397.101
396.886
396.674
396.467
396.264
396.066
395.87
395.677
395.491
395.311
395.136
394.966
394.798
394.633
394.469
394.305
394.142
393.978
393.812
393.649
393.965
394.193
394.369
394.512
394.633
400
400
400
400
399.999
399.632
399.306
399.012
398.738
398.479
398.232
397.995
397.765
397.54
397.318
397.1
396.886
396.674
396.466
396.264
396.065
395.869
395.677
395.492
395.312
395.138
394.968
394.801
394.636
394.471
394.308
394.144
393.978
393.81
393.646
393.963
394.192
394.368
394.511
394.632
400
400
400
400
399.999
399.632
399.307
399.012
398.738
398.479
398.231
397.994
397.764
397.539
397.318
397.101
396.888
396.677
396.47
396.267
396.069
395.873
395.682
395.497
395.318
395.144
394.973
394.806
394.641
394.476
394.312
394.147
393.98
393.812
393.647
393.965
394.194
394.37
394.513
394.635
400
400
400
400
399.999
399.632
399.307
399.012
398.738
398.478
398.231
397.993
397.763
397.539
397.319
397.102
396.89
396.68
396.475
396.273
396.074
395.88
395.689
395.504
395.325
395.15
394.98
394.812
394.646
394.481
394.315
394.15
393.982
393.813
393.647
393.965
394.194
394.371
394.515
394.636
400
400
400
400
399.999
399.633
399.308
399.012
398.738
398.479
398.231
397.993
397.763
397.539
397.32
397.105
396.894
396.686
396.482
396.281
396.083
395.889
395.7
395.515
395.335
395.16
394.988
394.819
394.652
394.486
394.32
394.154
393.986
393.816
393.651
393.969
394.198
394.375
394.518
394.64
400
400
400
400
399.999
399.633
399.308
399.013
398.738
398.478
398.23
397.992
397.762
397.539
397.321
397.107
396.897
396.691
396.488
396.288
396.092
395.898
395.709
395.524
395.344
395.168
394.994
394.824
394.656
394.489
394.322
394.155
393.987
393.818
393.652
393.971
394.2
394.377
394.52
394.642
400
400
400
400
399.999
399.633
399.308
399.013
398.739
398.479
398.231
397.993
397.763
397.54
397.323
397.11
396.902
396.698
396.497
396.299
396.103
395.91
395.721
395.536
395.356
395.178
395.004
394.832
394.662
394.494
394.327
394.16
393.992
393.823
393.657
393.976
394.205
394.382
394.526
394.647
400
400
400
400
399.999
399.633
399.309
399.014
398.739
398.48
398.231
397.993
397.762
397.539
397.322
397.11
396.904
396.701
396.502
396.305
396.109
395.917
395.728
395.544
395.362
395.184
395.008
394.835
394.664
394.495
394.327
394.159
393.991
393.822
393.657
393.976
394.205
394.382
394.526
394.647
400
400
400
400
399.999
399.634
399.31
399.015
398.741
398.482
398.234
397.995
397.764
397.541
397.324
397.112
396.906
396.705
396.507
396.311
396.117
395.925
395.736
395.551
395.369
395.189
395.011
394.836
394.663
394.493
394.324
394.155
393.986
393.817
393.651
393.971
394.2
394.377
394.521
394.642
400
400
400
400
399.999
399.634
399.31
399.015
398.74
398.48
398.232
397.992
397.761
397.536
397.317
397.105
396.898
396.696
396.498
396.301
396.106
395.912
395.722
395.534
395.35
395.167
394.986
394.807
394.631
394.457
394.284
394.113
393.942
393.77
393.601
393.922
394.152
394.329
394.472
394.593
400
400
400
400
399.999
399.635
399.31
399.014
398.738
398.476
398.224
397.982
397.746
397.516
397.293
397.076
396.864
396.656
396.453
396.25
396.049
395.849
395.651
395.456
395.262
395.071
394.881
394.693
394.507
394.323
394.142
393.961
393.78
393.599
393.421
393.748
393.98
394.158
394.3
394.422
400
400
400
400
399.999
399.628
399.295
398.989
398.702
398.427
398.162
397.904
397.652
397.405
397.164
396.927
396.695
396.467
396.241
396.017
395.793
395.57
395.348
395.128
394.909
394.692
394.476
394.262
394.049
393.838
393.629
393.421
393.214
393.005
392.801
393.154
393.402
393.591
393.741
393.874
400
400
400
400
399.999
399.578
399.199
398.848
398.516
398.196
397.884
397.578
397.276
396.979
396.686
396.397
396.113
395.832
395.553
395.274
394.996
394.717
394.44
394.164
393.889
393.616
393.343
393.073
392.804
392.537
392.271
392.007
391.743
391.478
391.22
391.758
392.119
392.392
392.615
392.802
400
400
400
400
399.999
399.773
399.517
399.247
398.968
398.686
398.402
398.117
397.832
397.548
397.266
396.984
396.704
396.426
396.148
395.873
395.599
395.327
395.055
394.783
394.51
394.237
393.965
393.694
393.424
393.156
392.89
392.627
392.365
392.105
391.85
392.099
392.337
392.549
392.737
392.901
400
400
400
400
400
399.805
399.589
399.362
399.13
398.896
398.661
398.427
398.194
397.963
397.734
397.507
397.282
397.059
396.838
396.619
396.402
396.187
395.973
395.759
395.545
395.331
395.119
394.907
394.697
394.489
394.282
394.077
393.874
393.672
393.474
393.587
393.709
393.827
393.934
394.035
400
400
400
400
400
399.809
399.599
399.381
399.159
398.937
398.716
398.497
398.28
398.066
397.855
397.647
397.442
397.24
397.04
396.842
396.648
396.456
396.266
396.077
395.888
395.7
395.513
395.328
395.144
394.963
394.784
394.606
394.431
394.257
394.086
394.188
394.296
394.403
394.501
394.593
400
400
400
400
400
399.808
399.598
399.38
399.16
398.94
398.722
398.506
398.293
398.083
397.877
397.674
397.474
397.277
397.082
396.891
396.703
396.518
396.334
396.152
395.972
395.792
395.614
395.438
395.263
395.091
394.921
394.753
394.587
394.423
394.262
394.362
394.469
394.575
394.673
394.764
400
400
400
400
400
399.808
399.598
399.38
399.16
398.941
398.723
398.509
398.297
398.089
397.884
397.682
397.483
397.286
397.092
396.902
396.715
396.531
396.349
396.169
395.991
395.814
395.639
395.465
395.294
395.124
394.957
394.792
394.63
394.469
394.311
394.411
394.519
394.624
394.722
394.813
400
400
400
400
400
399.807
399.596
399.377
399.157
398.938
398.721
398.507
398.296
398.087
397.882
397.68
397.481
397.284
397.089
396.898
396.71
396.525
396.344
396.164
395.986
395.81
395.635
395.463
395.292
395.124
394.957
394.793
394.632
394.472
394.315
394.415
394.523
394.628
394.726
394.818
400
400
400
400
400
399.807
399.595
399.377
399.157
398.938
398.721
398.508
398.298
398.09
397.885
397.683
397.483
397.285
397.09
396.897
396.708
396.523
396.34
396.159
395.981
395.805
395.632
395.46
395.289
395.121
394.955
394.791
394.63
394.471
394.314
394.414
394.522
394.627
394.725
394.816
400
400
400
400
400
399.806
399.595
399.376
399.155
398.937
398.721
398.508
398.298
398.09
397.885
397.683
397.482
397.283
397.087
396.893
396.703
396.516
396.332
396.151
395.972
395.796
395.623
395.451
395.281
395.113
394.947
394.784
394.623
394.464
394.307
394.407
394.515
394.62
394.718
394.81
400
400
400
400
400
399.806
399.595
399.376
399.156
398.937
398.722
398.509
398.3
398.093
397.888
397.685
397.484
397.284
397.087
396.893
396.702
396.513
396.328
396.146
395.967
395.791
395.617
395.446
395.276
395.109
394.943
394.78
394.619
394.46
394.304
394.404
394.512
394.617
394.715
394.806
400
400
400
400
400
399.806
399.594
399.376
399.156
398.938
398.722
398.51
398.301
398.094
397.889
397.686
397.484
397.283
397.085
396.89
396.698
396.508
396.322
396.139
395.96
395.783
395.61
395.439
395.27
395.102
394.937
394.774
394.614
394.455
394.299
394.399
394.507
394.612
394.71
394.801
400
400
400
400
400
399.806
399.595
399.377
399.157
398.939
398.724
398.512
398.303
398.096
397.891
397.687
397.484
397.283
397.084
396.889
396.696
396.505
396.318
396.135
395.955
395.778
395.605
395.434
395.266
395.099
394.934
394.772
394.612
394.453
394.297
394.397
394.504
394.609
394.708
394.799
400
400
400
400
400
399.807
399.596
399.377
399.158
398.94
398.725
398.513
398.303
398.096
397.891
397.686
397.483
397.281
397.082
396.886
396.693
396.502
396.314
396.13
395.95
395.774
395.6
395.43
395.262
395.096
394.931
394.769
394.609
394.451
394.294
394.394
394.502
394.607
394.705
394.797
400
400
400
400
400
399.807
399.597
399.379
399.16
398.942
398.727
398.514
398.304
398.097
397.89
397.686
397.482
397.28
397.081
396.885
396.692
396.501
396.313
396.129
395.949
395.772
395.599
395.429
395.262
395.096
394.932
394.77
394.611
394.452
394.295
394.395
394.502
394.607
394.706
394.797
400
400
400
400
400
399.808
399.598
399.381
399.162
398.944
398.727
398.514
398.304
398.096
397.889
397.684
397.48
397.278
397.079
396.883
396.69
396.5
396.312
396.128
395.948
395.771
395.599
395.429
395.262
395.096
394.933
394.772
394.612
394.453
394.295
394.395
394.503
394.608
394.706
394.797
400
400
400
400
400
399.808
399.599
399.382
399.163
398.945
398.728
398.514
398.303
398.094
397.887
397.682
397.478
397.276
397.077
396.881
396.689
396.499
396.311
396.127
395.947
395.771
395.598
395.429
395.263
395.098
394.935
394.774
394.614
394.455
394.297
394.397
394.504
394.609
394.707
394.798
400
400
400
400
400
399.809
399.601
399.384
399.165
398.946
398.728
398.514
398.302
398.093
397.885
397.68
397.475
397.274
397.075
396.879
396.687
396.497
396.31
396.126
395.946
395.77
395.598
395.43
395.264
395.099
394.937
394.776
394.616
394.456
394.296
394.396
394.504
394.609
394.707
394.798
400
400
400
400
400
399.809
399.601
399.384
399.165
398.945
398.728
398.513
398.301
398.091
397.883
397.677
397.473
397.271
397.072
396.877
396.684
396.494
396.307
396.123
395.944
395.768
395.597
395.429
395.264
395.1
394.938
394.777
394.617
394.456
394.296
394.396
394.503
394.608
394.706
394.798
400
400
400
400
400
399.81
399.602
399.385
399.165
398.946
398.727
398.512
398.3
398.09
397.882
397.676
397.472
397.27
397.071
396.876
396.683
396.493
396.305
396.122
395.943
395.768
395.598
395.431
395.266
395.102
394.94
394.779
394.618
394.456
394.296
394.395
394.503
394.608
394.706
394.798
400
400
400
400
400
399.81
399.602
399.385
399.166
398.945
398.727
398.511
398.299
398.089
397.881
397.675
397.472
397.27
397.071
396.876
396.683
396.492
396.305
396.122
395.944
395.769
395.599
395.432
395.268
395.104
394.942
394.781
394.619
394.456
394.294
394.394
394.502
394.607
394.705
394.797
400
400
400
400
400
399.81
399.603
399.386
399.166
398.945
398.727
398.511
398.299
398.089
397.881
397.676
397.473
397.272
397.074
396.879
396.686
396.496
396.309
396.127
395.949
395.775
395.605
395.438
395.273
395.11
394.947
394.785
394.622
394.459
394.297
394.397
394.504
394.609
394.708
394.799
400
400
400
400
400
399.81
399.603
399.386
399.166
398.945
398.726
398.511
398.298
398.089
397.881
397.677
397.475
397.275
397.077
396.882
396.69
396.501
396.315
396.133
395.955
395.781
395.611
395.443
395.278
395.114
394.951
394.788
394.625
394.461
394.298
394.398
394.505
394.611
394.709
394.801
400
400
400
400
400
399.811
399.603
399.386
399.166
398.946
398.727
398.511
398.299
398.09
397.883
397.679
397.478
397.279
397.083
396.889
396.698
396.509
396.324
396.142
395.964
395.79
395.619
395.451
395.285
395.121
394.957
394.794
394.63
394.466
394.303
394.402
394.51
394.615
394.713
394.805
400
400
400
400
400
399.811
399.603
399.387
399.166
398.946
398.727
398.511
398.298
398.089
397.883
397.68
397.48
397.283
397.088
396.895
396.704
396.516
396.332
396.15
395.972
395.797
395.626
395.457
395.29
395.125
394.96
394.797
394.632
394.468
394.305
394.404
394.512
394.617
394.716
394.807
400
400
400
400
400
399.811
399.604
399.388
399.168
398.947
398.729
398.513
398.3
398.091
397.886
397.684
397.485
397.289
397.095
396.903
396.714
396.527
396.342
396.161
395.983
395.808
395.636
395.466
395.298
395.132
394.967
394.803
394.638
394.474
394.311
394.41
394.518
394.623
394.721
394.813
400
400
400
400
400
399.811
399.604
399.388
399.168
398.948
398.729
398.513
398.3
398.091
397.886
397.684
397.486
397.29
397.098
396.908
396.719
396.532
396.349
396.168
395.99
395.814
395.641
395.469
395.301
395.134
394.968
394.803
394.639
394.474
394.311
394.41
394.518
394.623
394.722
394.813
400
400
400
400
400
399.812
399.605
399.39
399.17
398.95
398.732
398.516
398.303
398.094
397.888
397.687
397.489
397.294
397.103
396.913
396.725
396.539
396.355
396.174
395.996
395.819
395.645
395.472
395.302
395.133
394.967
394.801
394.635
394.47
394.306
394.406
394.513
394.618
394.717
394.808
400
400
400
400
400
399.812
399.605
399.389
399.17
398.949
398.73
398.513
398.3
398.089
397.883
397.68
397.481
397.286
397.093
396.903
396.714
396.526
396.341
396.158
395.977
395.798
395.62
395.444
395.271
395.099
394.929
394.76
394.592
394.424
394.257
394.357
394.464
394.57
394.668
394.759
400
400
400
400
400
399.812
399.606
399.389
399.168
398.946
398.724
398.504
398.287
398.072
397.861
397.653
397.449
397.248
397.05
396.854
396.659
396.465
396.272
396.082
395.893
395.705
395.519
395.335
395.152
394.971
394.791
394.613
394.435
394.258
394.082
394.183
394.292
394.398
394.496
394.588
400
400
400
400
400
399.808
399.595
399.369
399.138
398.904
398.669
398.434
398.201
397.969
397.74
397.513
397.289
397.068
396.849
396.63
396.413
396.195
395.979
395.764
395.55
395.337
395.125
394.914
394.704
394.496
394.29
394.084
393.879
393.674
393.471
393.584
393.706
393.824
393.931
394.032
400
400
400
400
399.999
399.776
399.523
399.254
398.976
398.694
398.409
398.124
397.839
397.554
397.271
396.99
396.711
396.435
396.16
395.885
395.61
395.335
395.061
394.788
394.515
394.243
393.972
393.702
393.433
393.166
392.9
392.636
392.372
392.107
391.847
392.095
392.334
392.546
392.734
392.898
400
400
400
400
400
399.858
399.695
399.515
399.319
399.111
398.891
398.663
398.428
398.187
397.941
397.693
397.441
397.188
396.933
396.677
396.421
396.164
395.906
395.647
395.387
395.125
394.863
394.602
394.34
394.08
393.82
393.561
393.303
393.047
392.794
392.866
392.959
393.062
393.168
393.266
400
400
400
400
400
399.877
399.741
399.593
399.434
399.267
399.092
398.912
398.727
398.539
398.348
398.155
397.96
397.765
397.569
397.372
397.176
396.979
396.783
396.585
396.387
396.189
395.99
395.792
395.595
395.398
395.201
395.006
394.812
394.619
394.427
394.426
394.439
394.464
394.494
394.529
400
400
400
400
400
399.88
399.748
399.605
399.455
399.297
399.134
398.967
398.796
398.623
398.449
398.274
398.099
397.923
397.747
397.572
397.398
397.224
397.051
396.878
396.704
396.531
396.359
396.187
396.016
395.846
395.677
395.509
395.342
395.177
395.013
395.014
395.025
395.046
395.072
395.102
400
400
400
400
400
399.88
399.747
399.605
399.455
399.299
399.139
398.974
398.807
398.638
398.467
398.297
398.126
397.956
397.785
397.616
397.447
397.28
397.114
396.948
396.782
396.617
396.453
396.289
396.127
395.965
395.806
395.647
395.49
395.334
395.18
395.183
395.197
395.218
395.245
395.276
400
400
400
400
400
399.879
399.747
399.605
399.455
399.3
399.14
398.976
398.81
398.642
398.473
398.304
398.134
397.964
397.795
397.627
397.459
397.294
397.129
396.965
396.801
396.639
396.477
396.316
396.156
395.998
395.841
395.685
395.531
395.379
395.228
395.232
395.246
395.269
395.296
395.328
400
400
400
400
400
399.879
399.746
399.603
399.453
399.298
399.138
398.974
398.808
398.64
398.471
398.302
398.132
397.962
397.792
397.623
397.456
397.289
397.124
396.96
396.797
396.635
396.474
396.314
396.155
395.997
395.841
395.686
395.533
395.381
395.231
395.236
395.25
395.273
395.301
395.333
400
400
400
400
400
399.879
399.746
399.603
399.453
399.298
399.138
398.975
398.809
398.641
398.473
398.303
398.133
397.963
397.792
397.623
397.455
397.288
397.122
396.958
396.794
396.632
396.471
396.311
396.152
395.995
395.839
395.684
395.531
395.38
395.23
395.235
395.25
395.272
395.3
395.333
400
400
400
400
400
399.878
399.745
399.602
399.452
399.297
399.137
398.974
398.808
398.641
398.472
398.302
398.132
397.961
397.79
397.62
397.45
397.282
397.116
396.951
396.787
396.624
396.463
396.303
396.144
395.987
395.831
395.677
395.524
395.372
395.223
395.227
395.242
395.265
395.293
395.325
400
400
400
400
400
399.878
399.745
399.602
399.452
399.297
399.138
398.975
398.81
398.643
398.474
398.304
398.133
397.962
397.79
397.62
397.45
397.281
397.113
396.948
396.783
396.62
396.459
396.299
396.141
395.983
395.827
395.673
395.52
395.369
395.219
395.224
395.239
395.262
395.29
395.322
400
400
400
400
400
399.878
399.745
399.602
399.452
399.297
399.138
398.975
398.81
398.643
398.474
398.304
398.133
397.961
397.789
397.617
397.446
397.277
397.109
396.942
396.777
396.614
396.453
396.293
396.135
395.977
395.821
395.667
395.515
395.363
395.214
395.219
395.234
395.256
395.284
395.317
400
400
400
400
400
399.879
399.745
399.603
399.453
399.298
399.139
398.976
398.811
398.644
398.475
398.305
398.133
397.961
397.788
397.616
397.445
397.275
397.106
396.939
396.774
396.611
396.449
396.29
396.131
395.974
395.819
395.665
395.512
395.361
395.212
395.217
395.232
395.254
395.282
395.315
400
400
400
400
400
399.879
399.746
399.603
399.454
399.299
399.139
398.977
398.812
398.644
398.475
398.304
398.132
397.959
397.786
397.614
397.443
397.272
397.103
396.936
396.77
396.607
396.445
396.286
396.128
395.971
395.815
395.662
395.51
395.358
395.209
395.214
395.229
395.251
395.279
395.312
400
400
400
400
400
399.879
399.747
399.605
399.455
399.3
399.141
398.978
398.812
398.645
398.475
398.304
398.132
397.958
397.786
397.614
397.442
397.272
397.102
396.935
396.769
396.606
396.444
396.285
396.127
395.971
395.816
395.662
395.51
395.359
395.209
395.214
395.229
395.252
395.28
395.313
400
400
400
400
400
399.88
399.747
399.606
399.456
399.301
399.141
398.978
398.812
398.644
398.474
398.303
398.13
397.957
397.784
397.612
397.441
397.271
397.101
396.934
396.768
396.604
396.443
396.284
396.127
395.97
395.816
395.663
395.511
395.359
395.209
395.214
395.229
395.252
395.28
395.312
400
400
400
400
400
399.88
399.748
399.606
399.457
399.302
399.142
398.978
398.812
398.644
398.473
398.302
398.129
397.956
397.783
397.611
397.44
397.269
397.1
396.933
396.767
396.604
396.443
396.284
396.127
395.971
395.817
395.664
395.512
395.361
395.21
395.215
395.23
395.253
395.281
395.313
400
400
400
400
400
399.88
399.749
399.608
399.458
399.303
399.142
398.978
398.812
398.643
398.472
398.3
398.127
397.954
397.781
397.609
397.438
397.268
397.099
396.931
396.766
396.603
396.442
396.284
396.127
395.972
395.818
395.665
395.513
395.361
395.21
395.215
395.23
395.253
395.281
395.313
400
400
400
400
400
399.881
399.749
399.608
399.458
399.303
399.142
398.978
398.811
398.642
398.471
398.299
398.126
397.952
397.779
397.607
397.436
397.266
397.097
396.929
396.764
396.601
396.441
396.283
396.127
395.972
395.818
395.666
395.513
395.361
395.21
395.214
395.229
395.252
395.28
395.313
400
400
400
400
400
399.881
399.75
399.608
399.459
399.303
399.142
398.977
398.81
398.641
398.47
398.298
398.125
397.952
397.779
397.607
397.436
397.265
397.096
396.928
396.764
396.601
396.441
396.284
396.128
395.973
395.82
395.667
395.515
395.362
395.21
395.215
395.23
395.252
395.28
395.313
400
400
400
400
400
399.881
399.75
399.609
399.459
399.303
399.141
398.977
398.81
398.641
398.47
398.298
398.125
397.952
397.779
397.606
397.435
397.265
397.095
396.928
396.764
396.602
396.442
396.285
396.129
395.975
395.821
395.668
395.515
395.362
395.21
395.214
395.229
395.252
395.28
395.312
400
400
400
400
400
399.881
399.75
399.609
399.459
399.303
399.142
398.977
398.81
398.641
398.47
398.299
398.126
397.954
397.781
397.609
397.438
397.268
397.099
396.932
396.768
396.606
396.447
396.29
396.134
395.979
395.826
395.673
395.519
395.366
395.213
395.218
395.232
395.255
395.283
395.315
400
400
400
400
400
399.881
399.75
399.609
399.459
399.303
399.141
398.977
398.81
398.641
398.47
398.299
398.127
397.955
397.783
397.612
397.441
397.271
397.103
396.937
396.773
396.611
396.452
396.294
396.138
395.984
395.83
395.676
395.522
395.368
395.215
395.219
395.234
395.257
395.284
395.317
400
400
400
400
400
399.881
399.75
399.609
399.459
399.303
399.142
398.977
398.81
398.642
398.472
398.301
398.13
397.959
397.788
397.617
397.447
397.278
397.11
396.945
396.781
396.619
396.46
396.302
396.146
395.99
395.836
395.682
395.528
395.374
395.22
395.225
395.239
395.262
395.289
395.322
400
400
400
400
400
399.881
399.751
399.609
399.46
399.303
399.142
398.977
398.81
398.642
398.472
398.302
398.131
397.961
397.791
397.621
397.452
397.283
397.116
396.951
396.787
396.625
396.465
396.307
396.15
395.995
395.84
395.686
395.531
395.377
395.223
395.227
395.242
395.264
395.292
395.324
400
400
400
400
400
399.881
399.751
399.61
399.46
399.304
399.143
398.979
398.812
398.644
398.475
398.305
398.135
397.966
397.797
397.628
397.459
397.292
397.125
396.96
396.797
396.635
396.475
396.316
396.159
396.003
395.848
395.693
395.538
395.384
395.23
395.234
395.249
395.271
395.298
395.331
400
400
400
400
400
399.882
399.751
399.61
399.461
399.305
399.144
398.979
398.812
398.644
398.475
398.305
398.136
397.967
397.799
397.631
397.463
397.296
397.129
396.965
396.801
396.64
396.479
396.32
396.162
396.005
395.849
395.694
395.539
395.384
395.23
395.235
395.249
395.271
395.298
395.331
400
400
400
400
400
399.882
399.752
399.611
399.462
399.307
399.146
398.982
398.815
398.646
398.477
398.308
398.139
397.971
397.803
397.635
397.468
397.301
397.135
396.97
396.807
396.644
396.483
396.322
396.163
396.006
395.849
395.693
395.537
395.382
395.227
395.231
395.244
395.266
395.293
395.325
400
400
400
400
400
399.882
399.752
399.611
399.462
399.306
399.145
398.98
398.812
398.643
398.472
398.302
398.132
397.963
397.794
397.625
397.456
397.288
397.12
396.954
396.788
396.623
396.459
396.296
396.134
395.973
395.813
395.654
395.495
395.337
395.179
395.182
395.195
395.216
395.243
395.274
400
400
400
400
400
399.882
399.752
399.611
399.46
399.303
399.14
398.972
398.802
398.629
398.454
398.28
398.105
397.93
397.756
397.581
397.406
397.232
397.057
396.883
396.71
396.537
396.365
396.193
396.022
395.852
395.684
395.515
395.347
395.18
395.012
395.013
395.024
395.044
395.07
395.1
400
400
400
400
400
399.879
399.745
399.597
399.439
399.272
399.098
398.918
398.733
398.544
398.353
398.16
397.966
397.772
397.577
397.381
397.184
396.987
396.789
396.591
396.393
396.194
395.996
395.799
395.601
395.405
395.208
395.013
394.817
394.622
394.427
394.425
394.438
394.463
394.493
394.527
400
400
400
400
400
399.86
399.699
399.52
399.325
399.116
398.897
398.668
398.433
398.192
397.946
397.698
397.447
397.195
396.942
396.687
396.43
396.171
395.912
395.652
395.392
395.131
394.87
394.609
394.348
394.088
393.828
393.569
393.31
393.051
392.793
392.865
392.958
393.061
393.167
393.265
400
400
400
400
400
399.891
399.771
399.641
399.499
399.347
399.185
399.014
398.833
398.645
398.449
398.248
398.04
397.828
397.611
397.39
397.166
396.94
396.71
396.477
396.241
396.003
395.763
395.521
395.279
395.035
394.791
394.547
394.303
394.059
393.816
393.811
393.82
393.84
393.869
393.895
400
400
400
400
400
399.905
399.804
399.696
399.581
399.46
399.333
399.2
399.062
398.919
398.771
398.62
398.466
398.308
398.148
397.985
397.821
397.655
397.487
397.317
397.145
396.972
396.797
396.622
396.446
396.27
396.093
395.916
395.74
395.563
395.387
395.349
395.317
395.292
395.272
395.256
400
400
400
400
400
399.907
399.808
399.705
399.596
399.482
399.363
399.24
399.113
398.983
398.849
398.713
398.575
398.435
398.293
398.15
398.006
397.862
397.716
397.569
397.42
397.271
397.122
396.972
396.822
396.672
396.522
396.372
396.223
396.074
395.925
395.896
395.871
395.851
395.834
395.822
400
400
400
400
400
399.907
399.808
399.705
399.596
399.483
399.366
399.245
399.121
398.994
398.864
398.732
398.598
398.462
398.325
398.187
398.049
397.91
397.77
397.63
397.489
397.347
397.205
397.063
396.921
396.78
396.638
396.498
396.357
396.218
396.078
396.053
396.032
396.015
396.002
395.994
400
400
400
400
400
399.907
399.808
399.704
399.596
399.484
399.367
399.247
399.123
398.997
398.868
398.737
398.604
398.469
398.333
398.196
398.059
397.922
397.784
397.645
397.506
397.367
397.228
397.088
396.949
396.81
396.671
396.533
396.396
396.259
396.123
396.1
396.08
396.065
396.053
396.046
400
400
400
400
400
399.906
399.807
399.703
399.595
399.482
399.366
399.246
399.122
398.995
398.866
398.735
398.602
398.467
398.331
398.194
398.056
397.918
397.78
397.642
397.503
397.364
397.225
397.087
396.948
396.809
396.672
396.534
396.398
396.262
396.127
396.104
396.085
396.07
396.058
396.052
400
400
400
400
400
399.906
399.807
399.703
399.595
399.482
399.366
399.246
399.123
398.997
398.868
398.736
398.603
398.468
398.331
398.194
398.056
397.917
397.779
397.64
397.501
397.362
397.224
397.085
396.946
396.808
396.67
396.533
396.397
396.261
396.126
396.103
396.084
396.069
396.058
396.052
400
400
400
400
400
399.906
399.807
399.703
399.594
399.482
399.365
399.246
399.122
398.996
398.867
398.735
398.602
398.466
398.329
398.191
398.052
397.913
397.774
397.634
397.495
397.356
397.217
397.078
396.94
396.801
396.663
396.526
396.39
396.254
396.119
396.096
396.077
396.062
396.051