/*--------------------------------*- C++ -*----------------------------------*\
| =========                 |                                                 |
| \\      /  F ield         | OpenFOAM: The Open Source CFD Toolbox           |
|  \\    /   O peration     | Version:  5.0                                   |
|   \\  /    A nd           | Web:      www.OpenFOAM.org                      |
|    \\/     M anipulation  |                                                 |
\*---------------------------------------------------------------------------*/
FoamFile
{
    version     2.0;
    format      ascii;
    class       volVectorField;
    location    "400/porous";
    object      U;
}
// * * * * * * * * * * * * * * * * * * * * * * * * * * * * * * * * * * * * * //

dimensions      [0 1 -1 0 0 0 0];

internalField   nonuniform List<vector> 
36000
(
(0.00555056 7.02127e-05 0.000289042)
(0.00340903 4.42548e-05 6.71224e-05)
(0.00220329 3.69639e-05 1.37094e-05)
(0.00180686 3.07685e-05 1.60336e-06)
(0.00158038 2.55944e-05 1.93769e-07)
(0.00143087 2.16609e-05 -4.36066e-08)
(0.00131992 1.86587e-05 -9.92072e-08)
(0.00123221 1.63201e-05 -1.35693e-07)
(0.00116052 1.44475e-05 -1.60065e-07)
(0.00110042 1.2912e-05 -1.72952e-07)
(0.00104907 1.16278e-05 -1.77881e-07)
(0.00100455 1.05356e-05 -1.77422e-07)
(0.000965469 9.59366e-06 -1.73398e-07)
(0.000930829 8.77161e-06 -1.67059e-07)
(0.000899864 8.04684e-06 -1.59237e-07)
(0.000871988 7.40224e-06 -1.50508e-07)
(0.000846739 6.82465e-06 -1.41276e-07)
(0.000823745 6.30377e-06 -1.31815e-07)
(0.000802709 5.83144e-06 -1.22327e-07)
(0.000783384 5.40111e-06 -1.12951e-07)
(0.000765565 5.00746e-06 -1.03781e-07)
(0.000749081 4.6461e-06 -9.48908e-08)
(0.000733788 4.31339e-06 -8.63208e-08)
(0.00071956 4.00625e-06 -7.81087e-08)
(0.000706293 3.7221e-06 -7.02708e-08)
(0.000693893 3.45867e-06 -6.28078e-08)
(0.00068228 3.21409e-06 -5.57317e-08)
(0.000671382 2.98661e-06 -4.90299e-08)
(0.00066114 2.77497e-06 -4.27253e-08)
(0.000651494 2.57738e-06 -3.67344e-08)
(0.000642403 2.39406e-06 -3.12455e-08)
(0.000633802 2.22056e-06 -2.57364e-08)
(0.000625707 2.06509e-06 -2.15417e-08)
(0.000617939 1.90283e-06 -1.5142e-08)
(0.000610836 1.79532e-06 -1.56127e-08)
(0.000603416 1.57963e-06 7.83699e-10)
(0.000598099 1.65798e-06 -2.7019e-08)
(0.000588666 1.04827e-06 6.14609e-08)
(0.000590148 1.86619e-06 -1.49969e-07)
(0.000568371 1.45003e-07 5.94483e-07)
(0.00562429 8.38019e-05 0.000295874)
(0.00352515 5.57859e-05 6.94443e-05)
(0.00238476 4.95062e-05 1.59396e-05)
(0.00202138 4.17585e-05 3.37245e-06)
(0.00182312 3.58425e-05 1.57099e-06)
(0.00169624 3.13323e-05 1.11423e-06)
(0.0016036 2.77807e-05 9.06686e-07)
(0.00153095 2.49103e-05 7.56707e-07)
(0.00147176 2.25175e-05 6.42937e-07)
(0.00142217 2.04752e-05 5.57475e-07)
(0.00137972 1.86995e-05 4.9209e-07)
(0.00134278 1.71334e-05 4.41028e-07)
(0.00131018 1.57368e-05 4.00298e-07)
(0.00128111 1.44804e-05 3.67145e-07)
(0.00125493 1.33422e-05 3.39654e-07)
(0.00123117 1.23054e-05 3.16472e-07)
(0.00120947 1.13567e-05 2.96623e-07)
(0.00118953 1.04854e-05 2.7939e-07)
(0.00117111 9.683e-06 2.64242e-07)
(0.00115403 8.9423e-06 2.50773e-07)
(0.00113812 8.25731e-06 2.38674e-07)
(0.00112326 7.62291e-06 2.27705e-07)
(0.00110934 7.03469e-06 2.17681e-07)
(0.00109625 6.48881e-06 2.08451e-07)
(0.00108393 5.98191e-06 1.99896e-07)
(0.00107229 5.51097e-06 1.91922e-07)
(0.00106128 5.07337e-06 1.8445e-07)
(0.00105085 4.66664e-06 1.77418e-07)
(0.00104095 4.28896e-06 1.70764e-07)
(0.00103154 3.93764e-06 1.6447e-07)
(0.00102258 3.61312e-06 1.58427e-07)
(0.00101403 3.30829e-06 1.52786e-07)
(0.00100589 3.03647e-06 1.47053e-07)
(0.000998039 2.75694e-06 1.42416e-07)
(0.000990696 2.57183e-06 1.35746e-07)
(0.000983221 2.20063e-06 1.3537e-07)
(0.000977196 2.36806e-06 1.1859e-07)
(0.000968375 1.1521e-06 1.53735e-07)
(0.000967684 3.29592e-06 1.32534e-08)
(0.000948233 -2.29194e-06 6.54475e-07)
(0.00561665 4.31986e-05 0.000294818)
(0.00351435 3.87549e-05 6.83114e-05)
(0.00239037 3.89918e-05 1.53282e-05)
(0.00203483 3.50479e-05 2.96223e-06)
(0.00184471 3.11662e-05 1.26848e-06)
(0.00172533 2.78118e-05 8.86456e-07)
(0.00163969 2.49083e-05 7.21892e-07)
(0.00157364 2.24204e-05 5.97651e-07)
(0.00152072 2.02732e-05 4.9954e-07)
(0.00147707 1.84035e-05 4.23725e-07)
(0.00144027 1.67601e-05 3.64413e-07)
(0.00140869 1.53028e-05 3.17308e-07)
(0.00138119 1.40001e-05 2.79303e-07)
(0.00135694 1.28275e-05 2.48196e-07)
(0.00133534 1.17655e-05 2.22413e-07)
(0.00131593 1.07986e-05 2.0082e-07)
(0.00129834 9.91439e-06 1.82561e-07)
(0.00128229 9.10284e-06 1.66997e-07)
(0.00126757 8.35569e-06 1.53638e-07)
(0.00125399 7.66612e-06 1.42092e-07)
(0.00124139 7.02845e-06 1.32059e-07)
(0.00122967 6.43786e-06 1.23291e-07)
(0.00121871 5.89025e-06 1.1559e-07)
(0.00120844 5.38209e-06 1.08792e-07)
(0.00119878 4.91029e-06 1.02767e-07)
(0.00118967 4.47217e-06 9.73999e-08)
(0.00118106 4.06539e-06 9.25965e-08)
(0.0011729 3.68777e-06 8.82828e-08)
(0.00116515 3.33777e-06 8.43842e-08)
(0.00115778 3.01311e-06 8.08655e-08)
(0.00115076 2.71431e-06 7.76194e-08)
(0.00114405 2.43515e-06 7.47563e-08)
(0.00113765 2.18779e-06 7.1857e-08)
(0.00113148 1.93529e-06 6.98653e-08)
(0.00112568 1.77106e-06 6.63319e-08)
(0.0011198 1.43129e-06 6.72851e-08)
(0.00111491 1.61523e-06 5.80662e-08)
(0.00110821 3.5442e-07 7.57318e-08)
(0.00110676 2.89367e-06 1.4968e-08)
(0.001093 -4.63266e-06 3.56883e-07)
(0.00560903 3.7218e-05 0.000295464)
(0.00349577 4.16684e-05 6.89141e-05)
(0.00237452 4.09011e-05 1.5737e-05)
(0.00202133 3.65959e-05 3.25869e-06)
(0.00183431 3.22541e-05 1.48091e-06)
(0.00171797 2.84864e-05 1.04272e-06)
(0.00163519 2.52718e-05 8.38263e-07)
(0.00157184 2.25653e-05 6.87111e-07)
(0.00152146 2.02753e-05 5.71009e-07)
(0.00148021 1.83189e-05 4.83089e-07)
(0.0014457 1.66287e-05 4.15584e-07)
(0.0014163 1.51519e-05 3.62875e-07)
(0.0013909 1.38477e-05 3.2097e-07)
(0.00136869 1.26849e-05 2.87079e-07)
(0.00134905 1.16393e-05 2.5924e-07)
(0.00133154 1.0692e-05 2.36039e-07)
(0.00131579 9.82857e-06 2.16455e-07)
(0.00130154 9.03728e-06 1.99731e-07)
(0.00128855 8.30896e-06 1.85291e-07)
(0.00127665 7.63621e-06 1.72698e-07)
(0.0012657 7.01303e-06 1.61624e-07)
(0.00125557 6.43449e-06 1.51799e-07)
(0.00124617 5.89649e-06 1.43017e-07)
(0.00123741 5.39561e-06 1.35109e-07)
(0.00122921 4.92892e-06 1.27949e-07)
(0.00122153 4.49392e-06 1.21426e-07)
(0.00121431 4.08853e-06 1.15444e-07)
(0.00120749 3.71083e-06 1.0994e-07)
(0.00120106 3.35953e-06 1.04841e-07)
(0.00119496 3.03262e-06 1.00117e-07)
(0.00118918 2.73098e-06 9.5682e-08)
(0.00118368 2.44865e-06 9.15951e-08)
(0.00117845 2.19836e-06 8.75911e-08)
(0.00117343 1.94357e-06 8.42142e-08)
(0.0011687 1.77791e-06 8.00689e-08)
(0.00116399 1.44458e-06 7.83074e-08)
(0.0011599 1.61833e-06 7.20202e-08)
(0.00115484 4.58389e-07 7.39824e-08)
(0.00115267 2.78861e-06 6.00187e-08)
(0.00114319 -3.85411e-06 1.81692e-07)
(0.00560508 2.48873e-05 0.00029527)
(0.00348634 3.19097e-05 6.8561e-05)
(0.00236678 3.29948e-05 1.53586e-05)
(0.00201478 3.08458e-05 2.95255e-06)
(0.00182897 2.80114e-05 1.23553e-06)
(0.00171363 2.52317e-05 8.45311e-07)
(0.00163167 2.26644e-05 6.75979e-07)
(0.00156903 2.03784e-05 5.50669e-07)
(0.00151928 1.83655e-05 4.53598e-07)
(0.00147863 1.65966e-05 3.79675e-07)
(0.00144469 1.50382e-05 3.22506e-07)
(0.00141587 1.36585e-05 2.77489e-07)
(0.00139103 1.243e-05 2.41376e-07)
(0.00136938 1.13296e-05 2.11915e-07)
(0.00135031 1.03382e-05 1.87529e-07)
(0.00133337 9.44018e-06 1.67093e-07)
(0.0013182 8.62273e-06 1.49783e-07)
(0.00130453 7.87543e-06 1.34988e-07)
(0.00129212 7.18972e-06 1.22241e-07)
(0.00128081 6.55858e-06 1.11185e-07)
(0.00127044 5.97617e-06 1.01538e-07)
(0.0012609 5.43765e-06 9.30715e-08)
(0.00125207 4.93892e-06 8.56117e-08)
(0.00124389 4.47654e-06 7.90071e-08)
(0.00123627 4.04756e-06 7.31361e-08)
(0.00122916 3.64946e-06 6.78981e-08)
(0.0012225 3.28014e-06 6.32073e-08)
(0.00121625 2.93767e-06 5.9e-08)
(0.00121037 2.6208e-06 5.52043e-08)
(0.00120482 2.3276e-06 5.17861e-08)
(0.00119958 2.05891e-06 4.86741e-08)
(0.00119462 1.8094e-06 4.58866e-08)
(0.00118992 1.5908e-06 4.32575e-08)
(0.00118543 1.37083e-06 4.10694e-08)
(0.0011812 1.23345e-06 3.86379e-08)
(0.00117707 9.55436e-07 3.71532e-08)
(0.00117327 1.12347e-06 3.54275e-08)
(0.00116929 1.88693e-07 2.85859e-08)
(0.00116625 2.15965e-06 5.33079e-08)
(0.00116031 -2.90411e-06 2.95898e-08)
(0.005603 2.06431e-05 0.000295425)
(0.00348001 3.00625e-05 6.88203e-05)
(0.0023591 3.20574e-05 1.56022e-05)
(0.00200672 3.05767e-05 3.1746e-06)
(0.00182116 2.80205e-05 1.42759e-06)
(0.0017063 2.52901e-05 1.00837e-06)
(0.00162491 2.26849e-05 8.13359e-07)
(0.00156283 2.03337e-05 6.66821e-07)
(0.00151364 1.82595e-05 5.52769e-07)
(0.0014735 1.64447e-05 4.65393e-07)
(0.00144003 1.48584e-05 3.97614e-07)
(0.00141164 1.34671e-05 3.4422e-07)
(0.00138721 1.22403e-05 3.01453e-07)
(0.00136593 1.11517e-05 2.66665e-07)
(0.0013472 1.01793e-05 2.37966e-07)
(0.00133059 9.30497e-06 2.13988e-07)
(0.00131573 8.514e-06 1.93729e-07)
(0.00130234 7.79451e-06 1.7643e-07)
(0.00129022 7.13683e-06 1.6152e-07)
(0.00127918 6.53314e-06 1.48562e-07)
(0.00126908 5.97703e-06 1.37207e-07)
(0.00125979 5.46329e-06 1.2719e-07)
(0.00125122 4.98759e-06 1.18291e-07)
(0.00124328 4.54634e-06 1.10335e-07)
(0.00123591 4.13657e-06 1.03182e-07)
(0.00122904 3.75576e-06 9.67193e-08)
(0.00122262 3.40186e-06 9.08502e-08)
(0.00121661 3.07304e-06 8.54942e-08)
(0.00121096 2.76816e-06 8.05894e-08)
(0.00120565 2.48552e-06 7.60807e-08)
(0.00120064 2.226e-06 7.19125e-08)
(0.00119591 1.985e-06 6.8065e-08)
(0.00119144 1.77341e-06 6.44639e-08)
(0.00118719 1.56341e-06 6.11411e-08)
(0.00118316 1.42912e-06 5.80467e-08)
(0.00117933 1.18357e-06 5.4671e-08)
(0.00117559 1.31488e-06 5.41533e-08)
(0.00117225 6.00543e-07 3.93243e-08)
(0.00116849 2.11244e-06 8.15859e-08)
(0.00116461 -1.34478e-06 -2.06617e-08)
(0.00560161 1.56281e-05 0.000295385)
(0.00347577 2.40841e-05 6.87263e-05)
(0.00235408 2.62754e-05 1.54538e-05)
(0.00200186 2.55913e-05 3.02374e-06)
(0.00181672 2.38356e-05 1.2881e-06)
(0.00170234 2.17705e-05 8.83479e-07)
(0.00162138 1.96993e-05 7.03198e-07)
(0.00155968 1.77658e-05 5.70219e-07)
(0.00151079 1.60177e-05 4.68034e-07)
(0.0014709 1.446e-05 3.90703e-07)
(0.00143764 1.30792e-05 3.31264e-07)
(0.00140942 1.18554e-05 2.84734e-07)
(0.00138513 1.07677e-05 2.47593e-07)
(0.00136397 9.79688e-06 2.17412e-07)
(0.00134537 8.92596e-06 1.92492e-07)
(0.00132885 8.14064e-06 1.71638e-07)
(0.00131409 7.42892e-06 1.53974e-07)
(0.0013008 6.7809e-06 1.3886e-07)
(0.00128876 6.1884e-06 1.25806e-07)
(0.0012778 5.6447e-06 1.14446e-07)
(0.00126778 5.14424e-06 1.04492e-07)
(0.00125858 4.68242e-06 9.57115e-08)
(0.00125009 4.25542e-06 8.79299e-08)
(0.00124223 3.86002e-06 8.09983e-08)
(0.00123494 3.49356e-06 7.47882e-08)
(0.00122815 3.15375e-06 6.92161e-08)
(0.00122181 2.83875e-06 6.41897e-08)
(0.00121588 2.54692e-06 5.9643e-08)
(0.00121031 2.27724e-06 5.55161e-08)
(0.00120508 2.02827e-06 5.17627e-08)
(0.00120016 1.80083e-06 4.83416e-08)
(0.00119551 1.59116e-06 4.52033e-08)
(0.00119111 1.40891e-06 4.236e-08)
(0.00118696 1.23139e-06 3.96437e-08)
(0.00118299 1.12112e-06 3.75264e-08)
(0.00117931 9.29541e-07 3.42101e-08)
(0.00117553 1.04542e-06 3.62567e-08)
(0.00117262 5.47229e-07 1.78427e-08)
(0.00116836 1.70649e-06 7.21892e-08)
(0.00116612 -5.12414e-07 -7.21673e-08)
(0.00560094 1.2886e-05 0.000295428)
(0.00347324 2.10616e-05 6.88154e-05)
(0.00235028 2.37315e-05 1.55517e-05)
(0.00199752 2.36639e-05 3.12786e-06)
(0.00181221 2.23869e-05 1.39143e-06)
(0.00169789 2.06365e-05 9.80942e-07)
(0.00161708 1.87667e-05 7.9259e-07)
(0.0015556 1.69605e-05 6.50986e-07)
(0.00150694 1.52965e-05 5.40516e-07)
(0.00146728 1.37994e-05 4.55634e-07)
(0.00143424 1.24677e-05 3.89544e-07)
(0.00140622 1.1288e-05 3.37251e-07)
(0.00138212 1.02427e-05 2.95186e-07)
(0.00136113 9.31397e-06 2.60816e-07)
(0.00134268 8.48529e-06 2.32347e-07)
(0.0013263 7.74221e-06 2.08477e-07)
(0.00131167 7.07239e-06 1.88246e-07)
(0.00129849 6.46556e-06 1.70932e-07)
(0.00128656 5.91316e-06 1.55987e-07)
(0.0012757 5.40817e-06 1.42978e-07)
(0.00126577 4.94476e-06 1.31578e-07)
(0.00125665 4.51818e-06 1.2152e-07)
(0.00124824 4.12447e-06 1.12588e-07)
(0.00124046 3.76034e-06 1.04613e-07)
(0.00123323 3.42309e-06 9.74555e-08)
(0.00122651 3.11046e-06 9.09989e-08)
(0.00122023 2.82062e-06 8.51474e-08)
(0.00121436 2.552e-06 7.98229e-08)
(0.00120885 2.30365e-06 7.49592e-08)
(0.00120368 2.07427e-06 7.04967e-08)
(0.00119881 1.86464e-06 6.63985e-08)
(0.00119421 1.67176e-06 6.2591e-08)
(0.00118987 1.50399e-06 5.91423e-08)
(0.00118578 1.34348e-06 5.57197e-08)
(0.00118185 1.24151e-06 5.31758e-08)
(0.00117826 1.0841e-06 4.87234e-08)
(0.00117446 1.17047e-06 5.12491e-08)
(0.00117182 8.29189e-07 2.90796e-08)
(0.00116723 1.67896e-06 8.83369e-08)
(0.00116586 2.98097e-07 -8.05056e-08)
(0.00560043 1.0174e-05 0.000295418)
(0.00347131 1.70114e-05 6.87909e-05)
(0.0023474 1.94198e-05 1.54997e-05)
(0.00199439 1.95643e-05 3.06469e-06)
(0.00180912 1.86545e-05 1.32493e-06)
(0.00169498 1.72905e-05 9.14605e-07)
(0.00161442 1.57846e-05 7.28839e-07)
(0.00155318 1.43022e-05 5.9117e-07)
(0.00150474 1.29196e-05 4.85215e-07)
(0.00146528 1.16651e-05 4.04938e-07)
(0.00143241 1.05423e-05 3.43243e-07)
(0.00140453 9.54316e-06 2.94999e-07)
(0.00138054 8.65476e-06 2.56567e-07)
(0.00135966 7.86327e-06 2.25413e-07)
(0.00134128 7.15551e-06 1.99763e-07)
(0.00132498 6.51975e-06 1.78349e-07)
(0.0013104 5.94589e-06 1.60253e-07)
(0.00129727 5.42543e-06 1.44797e-07)
(0.00128539 4.95129e-06 1.31467e-07)
(0.00127457 4.51759e-06 1.19872e-07)
(0.00126468 4.11951e-06 1.09712e-07)
(0.00125559 3.75305e-06 1.00751e-07)
(0.00124721 3.41489e-06 9.27991e-08)
(0.00123945 3.10229e-06 8.5699e-08)
(0.00123226 2.81298e-06 7.93332e-08)
(0.00122556 2.54506e-06 7.3605e-08)
(0.00121931 2.297e-06 6.84272e-08)
(0.00121346 2.0675e-06 6.37207e-08)
(0.00120797 1.85579e-06 5.94405e-08)
(0.00120282 1.66086e-06 5.5528e-08)
(0.00119797 1.48346e-06 5.19558e-08)
(0.0011934 1.32135e-06 4.86386e-08)
(0.00118908 1.18162e-06 4.56974e-08)
(0.00118502 1.05081e-06 4.26809e-08)
(0.00118111 9.69907e-07 4.07676e-08)
(0.00117758 8.54379e-07 3.64192e-08)
(0.00117375 9.29419e-07 4.03573e-08)
(0.00117132 7.17214e-07 1.68944e-08)
(0.00116654 1.35974e-06 8.11945e-08)
(0.00116592 5.40381e-07 -1.01515e-07)
(0.00560017 8.22274e-06 0.00029543)
(0.00347016 1.41092e-05 6.88215e-05)
(0.00234539 1.64737e-05 1.55359e-05)
(0.00199195 1.69033e-05 3.10738e-06)
(0.00180648 1.6352e-05 1.37214e-06)
(0.00169229 1.53172e-05 9.63378e-07)
(0.00161176 1.40886e-05 7.77197e-07)
(0.00155061 1.28303e-05 6.37811e-07)
(0.00150229 1.16276e-05 5.29371e-07)
(0.00146296 1.05188e-05 4.46221e-07)
(0.0014302 9.51659e-06 3.8155e-07)
(0.00140244 8.61946e-06 3.30389e-07)
(0.00137856 7.81958e-06 2.89206e-07)
(0.00135778 7.10651e-06 2.5552e-07)
(0.0013395 6.46946e-06 2.27579e-07)
(0.00132328 5.89832e-06 2.04111e-07)
(0.00130877 5.38409e-06 1.84186e-07)
(0.00129572 4.91901e-06 1.67107e-07)
(0.0012839 4.49652e-06 1.52346e-07)
(0.00127314 4.11113e-06 1.39487e-07)
(0.0012633 3.75827e-06 1.282e-07)
(0.00125426 3.43415e-06 1.18242e-07)
(0.00124593 3.13562e-06 1.09399e-07)
(0.00123822 2.86008e-06 1.01501e-07)
(0.00123106 2.60535e-06 9.44121e-08)
(0.0012244 2.36965e-06 8.8027e-08)
(0.00121818 2.15155e-06 8.22461e-08)
(0.00121237 1.94984e-06 7.69896e-08)
(0.00120692 1.7638e-06 7.2197e-08)
(0.0012018 1.59256e-06 6.78007e-08)
(0.00119698 1.43676e-06 6.37782e-08)
(0.00119244 1.29473e-06 6.00239e-08)
(0.00118814 1.17228e-06 5.66948e-08)
(0.00118411 1.05957e-06 5.32279e-08)
(0.00118022 9.88441e-07 5.10381e-08)
(0.00117675 8.97845e-07 4.60334e-08)
(0.00117292 9.52751e-07 5.00902e-08)
(0.00117063 8.19692e-07 2.48028e-08)
(0.00116574 1.28546e-06 9.08464e-08)
(0.00116547 7.98586e-07 -1.01658e-07)
(0.00559996 6.37934e-06 0.000295427)
(0.00346924 1.10402e-05 6.88153e-05)
(0.00234381 1.2993e-05 1.55186e-05)
(0.00199008 1.33998e-05 3.08331e-06)
(0.00180451 1.30075e-05 1.34402e-06)
(0.00169035 1.2205e-05 9.32568e-07)
(0.00160993 1.12315e-05 7.45153e-07)
(0.00154892 1.02247e-05 6.05693e-07)
(0.00150074 9.25751e-06 4.98001e-07)
(0.00146154 8.36396e-06 4.16136e-07)
(0.00142891 7.55571e-06 3.53053e-07)
(0.00140126 6.83243e-06 3.03624e-07)
(0.00137747 6.18802e-06 2.64209e-07)
(0.00135677 5.61407e-06 2.32239e-07)
(0.00133855 5.10177e-06 2.05921e-07)
(0.00132239 4.64283e-06 1.83962e-07)
(0.00130793 4.22986e-06 1.65422e-07)
(0.00129492 3.85653e-06 1.49596e-07)
(0.00128313 3.51748e-06 1.35962e-07)
(0.0012724 3.20826e-06 1.24115e-07)
(0.00126259 2.92518e-06 1.13739e-07)
(0.00125357 2.66518e-06 1.0459e-07)
(0.00124526 2.42574e-06 9.64749e-08)
(0.00123757 2.20478e-06 8.92344e-08)
(0.00123043 2.00059e-06 8.27369e-08)
(0.00122379 1.81175e-06 7.68848e-08)
(0.00121758 1.63714e-06 7.15925e-08)
(0.00121178 1.47584e-06 6.67814e-08)
(0.00120635 1.3273e-06 6.23998e-08)
(0.00120124 1.19091e-06 5.83845e-08)
(0.00119643 1.06725e-06 5.4724e-08)
(0.00119191 9.55176e-07 5.12983e-08)
(0.00118762 8.59379e-07 4.83014e-08)
(0.00118361 7.72968e-07 4.51067e-08)
(0.00117973 7.20038e-07 4.32988e-08)
(0.0011763 6.57947e-07 3.84174e-08)
(0.00117247 7.05187e-07 4.3226e-08)
(0.00117029 6.33835e-07 1.75005e-08)
(0.00116534 9.83525e-07 8.59041e-08)
(0.00116543 7.14637e-07 -1.12475e-07)
(0.00559985 4.82813e-06 0.00029543)
(0.00346868 8.44928e-06 6.88258e-05)
(0.00234275 1.00857e-05 1.55316e-05)
(0.00198873 1.05288e-05 3.09971e-06)
(0.00180301 1.03337e-05 1.3637e-06)
(0.00168879 9.78562e-06 9.544e-07)
(0.00160837 9.07381e-06 7.68243e-07)
(0.0015474 8.31158e-06 6.29282e-07)
(0.00149928 7.56279e-06 5.21456e-07)
(0.00146014 6.86001e-06 4.38998e-07)
(0.00142758 6.21693e-06 3.75009e-07)
(0.0014 5.63656e-06 3.24485e-07)
(0.00137627 5.11626e-06 2.83877e-07)
(0.00135562 4.65083e-06 2.50688e-07)
(0.00133746 4.23419e-06 2.23176e-07)
(0.00132135 3.86027e-06 2.00075e-07)
(0.00130694 3.52351e-06 1.80463e-07)
(0.00129396 3.21899e-06 1.63653e-07)
(0.00128222 2.94251e-06 1.49115e-07)
(0.00127152 2.69049e-06 1.36444e-07)
(0.00126174 2.45994e-06 1.25327e-07)
(0.00125276 2.24835e-06 1.1551e-07)
(0.00124448 2.05365e-06 1.06791e-07)
(0.00123681 1.87412e-06 9.90004e-08)
(0.0012297 1.70831e-06 9.20142e-08)
(0.00122308 1.55504e-06 8.57142e-08)
(0.0012169 1.41338e-06 8.00168e-08)
(0.00121112 1.28254e-06 7.48334e-08)
(0.0012057 1.16206e-06 7.0113e-08)
(0.00120061 1.05146e-06 6.57811e-08)
(0.00119582 9.51153e-07 6.18327e-08)
(0.00119132 8.60378e-07 5.81325e-08)
(0.00118705 7.82645e-07 5.48863e-08)
(0.00118306 7.13319e-07 5.14192e-08)
(0.0011792 6.69791e-07 4.94293e-08)
(0.0011758 6.23249e-07 4.41805e-08)
(0.00117198 6.55366e-07 4.89747e-08)
(0.00116987 6.14519e-07 2.23556e-08)
(0.00116489 8.56922e-07 9.1343e-08)
(0.00116514 7.03002e-07 -1.11614e-07)
(0.00559976 3.35122e-06 0.000295428)
(0.00346827 5.87521e-06 6.88239e-05)
(0.00234197 7.04128e-06 1.5526e-05)
(0.00198774 7.35769e-06 3.09124e-06)
(0.00180193 7.22127e-06 1.35302e-06)
(0.0016877 6.82798e-06 9.41773e-07)
(0.00160731 6.31505e-06 7.54213e-07)
(0.0015464 5.76528e-06 6.14421e-07)
(0.00149835 5.22579e-06 5.06244e-07)
(0.0014593 4.72078e-06 4.23814e-07)
(0.00142681 4.26036e-06 3.60142e-07)
(0.00139929 3.84662e-06 3.10139e-07)
(0.00137562 3.47743e-06 2.70178e-07)
(0.00135502 3.14873e-06 2.37709e-07)
(0.00133691 2.8558e-06 2.10943e-07)
(0.00132083 2.59401e-06 1.88586e-07)
(0.00130645 2.3591e-06 1.69692e-07)
(0.0012935 2.14738e-06 1.53557e-07)
(0.00128178 1.95566e-06 1.39654e-07)
(0.00127111 1.78129e-06 1.27566e-07)
(0.00126134 1.62207e-06 1.16983e-07)
(0.00125237 1.47616e-06 1.07653e-07)
(0.0012441 1.34206e-06 9.93731e-08)
(0.00123645 1.21851e-06 9.19894e-08)
(0.00122935 1.10453e-06 8.53638e-08)
(0.00122274 9.99248e-07 7.93947e-08)
(0.00121657 9.02041e-07 7.39924e-08)
(0.00121079 8.12357e-07 6.90852e-08)
(0.00120538 7.29918e-07 6.46139e-08)
(0.0012003 6.54404e-07 6.05119e-08)
(0.00119552 5.86141e-07 5.67773e-08)
(0.00119103 5.24702e-07 5.32693e-08)
(0.00118677 4.72563e-07 5.02152e-08)
(0.00118279 4.26847e-07 4.69115e-08)
(0.00117894 3.99321e-07 4.51285e-08)
(0.00117556 3.71801e-07 3.99709e-08)
(0.00117175 3.97623e-07 4.51339e-08)
(0.00116969 3.81631e-07 1.83985e-08)
(0.0011647 5.50917e-07 8.84575e-08)
(0.00116512 4.76404e-07 -1.17164e-07)
(0.00559971 1.99019e-06 0.000295428)
(0.00346803 3.50313e-06 6.88265e-05)
(0.00234151 4.23884e-06 1.553e-05)
(0.00198714 4.46391e-06 3.09678e-06)
(0.00180125 4.41942e-06 1.36009e-06)
(0.00168697 4.2144e-06 9.49988e-07)
(0.00160658 3.93053e-06 7.63284e-07)
(0.00154568 3.61758e-06 6.24063e-07)
(0.00149767 3.30468e-06 5.16179e-07)
(0.00145864 3.00747e-06 4.338e-07)
(0.00142618 2.73311e-06 3.69982e-07)
(0.00139869 2.48381e-06 3.19691e-07)
(0.00137506 2.25913e-06 2.79342e-07)
(0.00135448 2.05726e-06 2.46429e-07)
(0.00133639 1.8759e-06 2.1919e-07)
(0.00132033 1.71264e-06 1.96349e-07)
(0.00130598 1.56525e-06 1.76981e-07)
(0.00129305 1.4317e-06 1.60398e-07)
(0.00128135 1.31024e-06 1.46064e-07)
(0.00127069 1.19938e-06 1.3358e-07)
(0.00126094 1.09787e-06 1.22631e-07)
(0.00125199 1.00464e-06 1.12967e-07)
(0.00124373 9.18811e-07 1.04383e-07)
(0.00123609 8.39644e-07 9.67175e-08)
(0.001229 7.66526e-07 8.98394e-08)
(0.0012224 6.98947e-07 8.3641e-08)
(0.00121624 6.36497e-07 7.80297e-08)
(0.00121048 5.78835e-07 7.2934e-08)
(0.00120508 5.25783e-07 6.82885e-08)
(0.00120001 4.77124e-07 6.40274e-08)
(0.00119524 4.33051e-07 6.01435e-08)
(0.00119075 3.93311e-07 5.65e-08)
(0.00118651 3.59358e-07 5.3324e-08)
(0.00118254 3.29598e-07 4.9888e-08)
(0.0011787 3.10755e-07 4.80095e-08)
(0.00117533 2.92793e-07 4.2689e-08)
(0.00117153 3.05368e-07 4.78141e-08)
(0.00116951 2.96246e-07 2.07056e-08)
(0.00116451 3.88395e-07 9.09149e-08)
(0.00116499 3.48108e-07 -1.16646e-07)
(0.00559969 6.53514e-07 0.000295425)
(0.00346791 1.14437e-06 6.8825e-05)
(0.00234128 1.38021e-06 1.55283e-05)
(0.00198683 1.44108e-06 3.09449e-06)
(0.00180091 1.41188e-06 1.35718e-06)
(0.00168662 1.32866e-06 9.46343e-07)
(0.00160624 1.22004e-06 7.59037e-07)
(0.00154536 1.10349e-06 6.19404e-07)
(0.00149736 9.89246e-07 5.11259e-07)
(0.00145836 8.82712e-07 4.28758e-07)
(0.00142593 7.86218e-07 3.64934e-07)
(0.00139846 7.00263e-07 3.14719e-07)
(0.00137485 6.24396e-07 2.74511e-07)
(0.0013543 5.57655e-07 2.4178e-07)
(0.00133622 4.98949e-07 2.14749e-07)
(0.00132018 4.47172e-07 1.92131e-07)
(0.00130583 4.01312e-07 1.72983e-07)
(0.00129292 3.60487e-07 1.56615e-07)
(0.00128122 3.2394e-07 1.42496e-07)
(0.00127057 2.9104e-07 1.3021e-07)
(0.00126083 2.61266e-07 1.19443e-07)
(0.00125188 2.34202e-07 1.09947e-07)
(0.00124363 2.09486e-07 1.01521e-07)
(0.001236 1.86854e-07 9.40029e-08)
(0.00122891 1.66071e-07 8.72601e-08)
(0.00122232 1.46965e-07 8.11796e-08)
(0.00121616 1.29397e-07 7.56832e-08)
(0.00121041 1.13254e-07 7.06854e-08)
(0.00120501 9.84806e-08 6.6135e-08)
(0.00119994 8.50224e-08 6.19627e-08)
(0.00119517 7.29593e-08 5.81605e-08)
(0.00119069 6.22142e-08 5.45883e-08)
(0.00118645 5.32901e-08 5.14861e-08)
(0.00118248 4.56974e-08 4.81126e-08)
(0.00117864 4.16656e-08 4.63104e-08)
(0.00117529 3.80618e-08 4.10305e-08)
(0.00117149 4.46146e-08 4.62706e-08)
(0.00116948 4.49143e-08 1.9163e-08)
(0.00116448 7.99288e-08 8.96475e-08)
(0.00116502 7.2715e-08 -1.1875e-07)
(0.00559969 -6.53516e-07 0.000295425)
(0.00346791 -1.14437e-06 6.8825e-05)
(0.00234128 -1.38021e-06 1.55283e-05)
(0.00198683 -1.44108e-06 3.09449e-06)
(0.00180091 -1.41187e-06 1.35718e-06)
(0.00168662 -1.32866e-06 9.4634e-07)
(0.00160624 -1.22003e-06 7.5904e-07)
(0.00154536 -1.10348e-06 6.19403e-07)
(0.00149736 -9.89238e-07 5.1126e-07)
(0.00145836 -8.82708e-07 4.28758e-07)
(0.00142593 -7.8621e-07 3.64935e-07)
(0.00139846 -7.00261e-07 3.14721e-07)
(0.00137485 -6.24393e-07 2.7451e-07)
(0.0013543 -5.57657e-07 2.41782e-07)
(0.00133622 -4.98948e-07 2.14749e-07)
(0.00132018 -4.47172e-07 1.92129e-07)
(0.00130583 -4.01313e-07 1.72984e-07)
(0.00129292 -3.60492e-07 1.56617e-07)
(0.00128122 -3.23941e-07 1.42492e-07)
(0.00127057 -2.91038e-07 1.3021e-07)
(0.00126083 -2.61266e-07 1.19441e-07)
(0.00125188 -2.34196e-07 1.09949e-07)
(0.00124363 -2.09484e-07 1.01522e-07)
(0.001236 -1.86853e-07 9.40029e-08)
(0.00122891 -1.6607e-07 8.7258e-08)
(0.00122232 -1.46964e-07 8.11803e-08)
(0.00121616 -1.29393e-07 7.56834e-08)
(0.00121041 -1.13247e-07 7.06858e-08)
(0.00120501 -9.84811e-08 6.61352e-08)
(0.00119994 -8.50207e-08 6.19621e-08)
(0.00119517 -7.29494e-08 5.81602e-08)
(0.00119069 -6.22067e-08 5.45891e-08)
(0.00118645 -5.32773e-08 5.14896e-08)
(0.00118248 -4.56797e-08 4.8112e-08)
(0.00117864 -4.16434e-08 4.63094e-08)
(0.00117529 -3.80367e-08 4.10278e-08)
(0.00117149 -4.45858e-08 4.62719e-08)
(0.00116948 -4.48867e-08 1.91639e-08)
(0.00116448 -7.9895e-08 8.96462e-08)
(0.00116502 -7.26958e-08 -1.18753e-07)
(0.00559971 -1.99019e-06 0.000295428)
(0.00346803 -3.50313e-06 6.88265e-05)
(0.00234151 -4.23884e-06 1.553e-05)
(0.00198714 -4.4639e-06 3.09678e-06)
(0.00180125 -4.41941e-06 1.36009e-06)
(0.00168697 -4.21439e-06 9.49989e-07)
(0.00160658 -3.93052e-06 7.63281e-07)
(0.00154568 -3.61758e-06 6.24062e-07)
(0.00149767 -3.30468e-06 5.16177e-07)
(0.00145864 -3.00747e-06 4.33802e-07)
(0.00142618 -2.73311e-06 3.69981e-07)
(0.00139869 -2.48381e-06 3.19691e-07)
(0.00137506 -2.25913e-06 2.79341e-07)
(0.00135448 -2.05726e-06 2.46429e-07)
(0.00133639 -1.8759e-06 2.19192e-07)
(0.00132033 -1.71265e-06 1.96347e-07)
(0.00130598 -1.56525e-06 1.76981e-07)
(0.00129305 -1.4317e-06 1.60394e-07)
(0.00128135 -1.31024e-06 1.46062e-07)
(0.00127069 -1.19938e-06 1.33581e-07)
(0.00126094 -1.09786e-06 1.22634e-07)
(0.00125199 -1.00464e-06 1.12965e-07)
(0.00124373 -9.18807e-07 1.04381e-07)
(0.00123609 -8.39642e-07 9.6716e-08)
(0.001229 -7.66521e-07 8.98391e-08)
(0.0012224 -6.9894e-07 8.3641e-08)
(0.00121624 -6.36496e-07 7.80315e-08)
(0.00121048 -5.78831e-07 7.29308e-08)
(0.00120508 -5.25775e-07 6.82852e-08)
(0.00120001 -4.77118e-07 6.40289e-08)
(0.00119524 -4.33043e-07 6.01461e-08)
(0.00119075 -3.93308e-07 5.64981e-08)
(0.00118651 -3.5935e-07 5.3322e-08)
(0.00118254 -3.29588e-07 4.98889e-08)
(0.0011787 -3.10736e-07 4.80116e-08)
(0.00117533 -2.92772e-07 4.26892e-08)
(0.00117153 -3.0535e-07 4.78139e-08)
(0.00116951 -2.96224e-07 2.07066e-08)
(0.00116451 -3.88366e-07 9.09206e-08)
(0.00116499 -3.48085e-07 -1.16648e-07)
(0.00559976 -3.35122e-06 0.000295428)
(0.00346827 -5.87521e-06 6.88239e-05)
(0.00234197 -7.04128e-06 1.5526e-05)
(0.00198774 -7.35769e-06 3.09124e-06)
(0.00180193 -7.22126e-06 1.35302e-06)
(0.0016877 -6.82797e-06 9.41773e-07)
(0.00160731 -6.31504e-06 7.54215e-07)
(0.0015464 -5.76528e-06 6.14421e-07)
(0.00149835 -5.22578e-06 5.06245e-07)
(0.0014593 -4.72078e-06 4.23814e-07)
(0.00142681 -4.26036e-06 3.60144e-07)
(0.00139929 -3.84661e-06 3.1014e-07)
(0.00137562 -3.47743e-06 2.70174e-07)
(0.00135502 -3.14872e-06 2.37707e-07)
(0.00133691 -2.8558e-06 2.10946e-07)
(0.00132083 -2.59401e-06 1.88585e-07)
(0.00130645 -2.3591e-06 1.6969e-07)
(0.0012935 -2.14738e-06 1.53558e-07)
(0.00128178 -1.95566e-06 1.39653e-07)
(0.00127111 -1.7813e-06 1.27568e-07)
(0.00126134 -1.62207e-06 1.16986e-07)
(0.00125237 -1.47616e-06 1.07655e-07)
(0.0012441 -1.34205e-06 9.93763e-08)
(0.00123645 -1.21851e-06 9.199e-08)
(0.00122935 -1.10452e-06 8.53618e-08)
(0.00122274 -9.99242e-07 7.93955e-08)
(0.00121657 -9.02034e-07 7.39932e-08)
(0.00121079 -8.12352e-07 6.90871e-08)
(0.00120538 -7.29912e-07 6.46155e-08)
(0.0012003 -6.54394e-07 6.05115e-08)
(0.00119552 -5.8614e-07 5.67762e-08)
(0.00119103 -5.24697e-07 5.32667e-08)
(0.00118677 -4.72557e-07 5.02169e-08)
(0.00118279 -4.26842e-07 4.6912e-08)
(0.00117894 -3.99309e-07 4.51302e-08)
(0.00117556 -3.71787e-07 3.99721e-08)
(0.00117175 -3.97603e-07 4.51338e-08)
(0.00116969 -3.8161e-07 1.83971e-08)
(0.0011647 -5.50891e-07 8.84586e-08)
(0.00116512 -4.76389e-07 -1.17165e-07)
(0.00559985 -4.82813e-06 0.00029543)
(0.00346868 -8.44928e-06 6.88258e-05)
(0.00234275 -1.00857e-05 1.55316e-05)
(0.00198873 -1.05288e-05 3.09971e-06)
(0.00180301 -1.03337e-05 1.36369e-06)
(0.00168879 -9.78562e-06 9.54399e-07)
(0.00160837 -9.07381e-06 7.68242e-07)
(0.0015474 -8.31158e-06 6.2928e-07)
(0.00149928 -7.56279e-06 5.21459e-07)
(0.00146014 -6.86001e-06 4.38999e-07)
(0.00142758 -6.21694e-06 3.75009e-07)
(0.0014 -5.63656e-06 3.24484e-07)
(0.00137627 -5.11626e-06 2.83874e-07)
(0.00135562 -4.65083e-06 2.50687e-07)
(0.00133746 -4.23418e-06 2.23175e-07)
(0.00132135 -3.86027e-06 2.00075e-07)
(0.00130694 -3.52351e-06 1.80464e-07)
(0.00129396 -3.219e-06 1.63653e-07)
(0.00128222 -2.94252e-06 1.49114e-07)
(0.00127152 -2.6905e-06 1.36446e-07)
(0.00126174 -2.45993e-06 1.25326e-07)
(0.00125276 -2.24835e-06 1.15508e-07)
(0.00124448 -2.05365e-06 1.06789e-07)
(0.00123681 -1.87411e-06 9.90014e-08)
(0.0012297 -1.7083e-06 9.20138e-08)
(0.00122308 -1.55503e-06 8.5716e-08)
(0.0012169 -1.41337e-06 8.00167e-08)
(0.00121112 -1.28253e-06 7.48353e-08)
(0.0012057 -1.16206e-06 7.01113e-08)
(0.00120061 -1.05145e-06 6.57816e-08)
(0.00119582 -9.51145e-07 6.18324e-08)
(0.00119132 -8.60368e-07 5.81307e-08)
(0.00118705 -7.82637e-07 5.48847e-08)
(0.00118306 -7.13312e-07 5.14207e-08)
(0.0011792 -6.69783e-07 4.94293e-08)
(0.0011758 -6.23232e-07 4.41808e-08)
(0.00117198 -6.55343e-07 4.89749e-08)
(0.00116987 -6.14499e-07 2.2356e-08)
(0.00116489 -8.56894e-07 9.13458e-08)
(0.00116514 -7.02984e-07 -1.11619e-07)
(0.00559996 -6.37933e-06 0.000295427)
(0.00346924 -1.10402e-05 6.88153e-05)
(0.00234381 -1.2993e-05 1.55186e-05)
(0.00199008 -1.33998e-05 3.08331e-06)
(0.00180451 -1.30075e-05 1.34402e-06)
(0.00169035 -1.2205e-05 9.32566e-07)
(0.00160993 -1.12315e-05 7.45153e-07)
(0.00154892 -1.02247e-05 6.05694e-07)
(0.00150074 -9.25751e-06 4.98001e-07)
(0.00146154 -8.36396e-06 4.16135e-07)
(0.00142891 -7.55571e-06 3.53054e-07)
(0.00140126 -6.83243e-06 3.03627e-07)
(0.00137747 -6.18802e-06 2.64209e-07)
(0.00135677 -5.61407e-06 2.32238e-07)
(0.00133855 -5.10178e-06 2.05921e-07)
(0.00132239 -4.64283e-06 1.83961e-07)
(0.00130793 -4.22986e-06 1.65419e-07)
(0.00129492 -3.85653e-06 1.49599e-07)
(0.00128313 -3.51748e-06 1.35963e-07)
(0.0012724 -3.20826e-06 1.24112e-07)
(0.00126259 -2.92518e-06 1.13739e-07)
(0.00125357 -2.66517e-06 1.04591e-07)
(0.00124526 -2.42574e-06 9.64756e-08)
(0.00123757 -2.20478e-06 8.92343e-08)
(0.00123043 -2.00058e-06 8.27387e-08)
(0.00122379 -1.81174e-06 7.68848e-08)
(0.00121758 -1.63713e-06 7.15928e-08)