/*--------------------------------*- C++ -*----------------------------------*\
| =========                 |                                                 |
| \\      /  F ield         | OpenFOAM: The Open Source CFD Toolbox           |
|  \\    /   O peration     | Version:  5.0                                   |
|   \\  /    A nd           | Web:      www.OpenFOAM.org                      |
|    \\/     M anipulation  |                                                 |
\*---------------------------------------------------------------------------*/
FoamFile
{
    version     2.0;
    format      ascii;
    class       volScalarField;
    location    "800/porous";
    object      T;
}
// * * * * * * * * * * * * * * * * * * * * * * * * * * * * * * * * * * * * * //

dimensions      [0 0 0 1 0 0 0];

internalField   nonuniform List<scalar> 
36000
(
400
400
400
400
399.999
399.579
399.2
398.849
398.516
398.196
397.884
397.578
397.278
396.981
396.689
396.399
396.113
395.83
395.55
395.274
395.001
394.729
394.455
394.179
393.901
393.624
393.348
393.075
392.805
392.539
392.277
392.019
391.767
391.523
391.294
391.821
392.176
392.446
392.667
392.853
400
400
400
400
399.999
399.628
399.295
398.988
398.7
398.425
398.16
397.902
397.651
397.404
397.163
396.926
396.692
396.463
396.237
396.015
395.797
395.58
395.361
395.141
394.92
394.699
394.481
394.265
394.052
393.841
393.635
393.433
393.236
393.045
392.863
393.209
393.452
393.639
393.787
393.919
400
400
400
400
399.999
399.635
399.31
399.012
398.735
398.472
398.22
397.977
397.742
397.513
397.29
397.072
396.86
396.652
396.448
396.25
396.056
395.863
395.668
395.472
395.276
395.082
394.889
394.699
394.512
394.329
394.15
393.975
393.806
393.642
393.488
393.807
394.034
394.21
394.35
394.471
400
400
400
400
399.999
399.634
399.309
399.012
398.736
398.475
398.226
397.987
397.755
397.53
397.312
397.1
396.894
396.692
396.496
396.306
396.119
395.934
395.747
395.559
395.371
395.184
395
394.819
394.641
394.467
394.297
394.132
393.972
393.819
393.675
393.988
394.213
394.387
394.529
394.649
400
400
400
400
399.999
399.633
399.308
399.012
398.736
398.476
398.227
397.988
397.758
397.534
397.318
397.108
396.903
396.704
396.511
396.323
396.139
395.956
395.771
395.585
395.399
395.215
395.034
394.855
394.68
394.509
394.342
394.18
394.024
393.874
393.734
394.044
394.269
394.443
394.585
394.705
400
400
400
400
399.999
399.633
399.307
399.01
398.734
398.473
398.225
397.986
397.755
397.533
397.317
397.108
396.904
396.706
396.513
396.326
396.142
395.96
395.775
395.589
395.404
395.221
395.041
394.863
394.688
394.518
394.352
394.19
394.035
393.887
393.747
394.058
394.282
394.457
394.598
394.719
400
400
400
400
399.999
399.632
399.307
399.01
398.734
398.474
398.225
397.987
397.757
397.535
397.321
397.112
396.908
396.711
396.519
396.331
396.146
395.963
395.779
395.593
395.409
395.227
395.047
394.869
394.695
394.524
394.358
394.197
394.042
393.894
393.755
394.065
394.289
394.463
394.605
394.725
400
400
400
400
399.999
399.632
399.307
399.01
398.734
398.474
398.225
397.987
397.758
397.537
397.323
397.115
396.912
396.715
396.522
396.332
396.146
395.962
395.778
395.593
395.409
395.227
395.048
394.871
394.696
394.526
394.36
394.199
394.043
393.895
393.756
394.066
394.29
394.464
394.606
394.726
400
400
400
400
399.999
399.632
399.307
399.011
398.735
398.475
398.228
397.99
397.762
397.543
397.329
397.122
396.921
396.723
396.528
396.335
396.146
395.961
395.778
395.594
395.412
395.23
395.051
394.875
394.7
394.53
394.364
394.202
394.047
393.898
393.758
394.068
394.293
394.466
394.608
394.728
400
400
400
400
399.999
399.632
399.308
399.012
398.737
398.477
398.23
397.993
397.766
397.548
397.336
397.13
396.929
396.73
396.531
396.335
396.143
395.956
395.773
395.592
395.41
395.23
395.052
394.875
394.701
394.531
394.365
394.203
394.047
393.898
393.757
394.068
394.292
394.466
394.607
394.727
400
400
400
400
399.999
399.634
399.31
399.014
398.74
398.48
398.233
397.997
397.772
397.554
397.344
397.14
396.938
396.736
396.534
396.336
396.142
395.952
395.769
395.589
395.41
395.231
395.053
394.878
394.704
394.534
394.367
394.206
394.049
393.9
393.757
394.067
394.292
394.466
394.607
394.727
400
400
400
400
399.999
399.634
399.311
399.016
398.742
398.483
398.236
398
397.775
397.559
397.35
397.147
396.944
396.738
396.534
396.336
396.141
395.949
395.764
395.586
395.408
395.231
395.054
394.879
394.706
394.535
394.369
394.207
394.05
393.9
393.756
394.066
394.291
394.465
394.606
394.726
400
400
400
400
399.999
399.635
399.313
399.019
398.745
398.486
398.239
398.004
397.778
397.563
397.355
397.151
396.947
396.74
396.536
396.337
396.142
395.951
395.764
395.586
395.41
395.235
395.059
394.884
394.711
394.54
394.373
394.211
394.054
393.902
393.756
394.067
394.292
394.465
394.607
394.727
400
400
400
400
399.999
399.637
399.315
399.021
398.747
398.488
398.241
398.005
397.779
397.563
397.355
397.151
396.946
396.739
396.536
396.337
396.143
395.951
395.764
395.586
395.412
395.238
395.063
394.889
394.716
394.545
394.378
394.215
394.057
393.903
393.756
394.067
394.292
394.466
394.607
394.727
400
400
400
400
399.999
399.637
399.316
399.023
398.749
398.489
398.242
398.006
397.78
397.563
397.354
397.149
396.944
396.737
396.534
396.336
396.142
395.951
395.764
395.586
395.413
395.241
395.067
394.894
394.721
394.55
394.382
394.219
394.06
393.906
393.757
394.068
394.293
394.467
394.609
394.728
400
400
400
400
399.999
399.64
399.32
399.026
398.752
398.493
398.245
398.008
397.78
397.561
397.351
397.146
396.941
396.735
396.532
396.334
396.14
395.949
395.762
395.584
395.413
395.243
395.07
394.897
394.724
394.553
394.386
394.221
394.061
393.905
393.753
394.065
394.291
394.465
394.607
394.727
400
400
400
400
399.999
399.641
399.321
399.028
398.754
398.494
398.245
398.007
397.779
397.559
397.347
397.141
396.937
396.731
396.528
396.33
396.136
395.945
395.759
395.582
395.411
395.242
395.07
394.898
394.725
394.554
394.386
394.221
394.06
393.903
393.75
394.063
394.289
394.463
394.605
394.725
400
400
400
400
399.999
399.642
399.323
399.03
398.756
398.495
398.247
398.008
397.778
397.557
397.344
397.137
396.933
396.728
396.525
396.327
396.133
395.942
395.756
395.58
395.41
395.241
395.07
394.897
394.725
394.554
394.385
394.22
394.059
393.9
393.746
394.06
394.286
394.461
394.603
394.723
400
400
400
400
399.999
399.644
399.326
399.033
398.758
398.497
398.248
398.008
397.778
397.555
397.341
397.133
396.929
396.726
396.523
396.325
396.132
395.94
395.756
395.581
395.41
395.24
395.068
394.895
394.723
394.551
394.383
394.217
394.055
393.896
393.74
394.055
394.281
394.457
394.599
394.72
400
400
400
400
399.999
399.645
399.327
399.034
398.759
398.498
398.248
398.008
397.777
397.554
397.338
397.129
396.926
396.725
396.525
396.328
396.135
395.945
395.763
395.587
395.414
395.241
395.068
394.895
394.722
394.551
394.381
394.216
394.053
393.893
393.738
394.053
394.28
394.455
394.598
394.719
400
400
400
400
399.999
399.646
399.329
399.036
398.761
398.499
398.249
398.009
397.777
397.552
397.336
397.126
396.922
396.723
396.526
396.332
396.14
395.953
395.772
395.594
395.418
395.242
395.068
394.893
394.72
394.548
394.379
394.212
394.049
393.889
393.732
394.048
394.276
394.452
394.595
394.716
400
400
400
400
399.999
399.647
399.33
399.037
398.762
398.5
398.25
398.009
397.777
397.552
397.334
397.124
396.92
396.722
396.528
396.337
396.147
395.962
395.781
395.601
395.422
395.244
395.068
394.893
394.719
394.547
394.377
394.211
394.047
393.886
393.73
394.046
394.274
394.451
394.594
394.715
400
400
400
400
399.999
399.648
399.331
399.038
398.763
398.501
398.251
398.009
397.776
397.551
397.333
397.121
396.917
396.72
396.528
396.339
396.152
395.967
395.784
395.602
395.421
395.243
395.065
394.889
394.715
394.542
394.373
394.206
394.042
393.882
393.725
394.042
394.27
394.447
394.591
394.712
400
400
400
400
399.999
399.648
399.332
399.039
398.764
398.503
398.252
398.011
397.777
397.552
397.333
397.121
396.917
396.72
396.53
396.343
396.157
395.972
395.787
395.604
395.422
395.243
395.065
394.888
394.713
394.541
394.371
394.204
394.041
393.88
393.723
394.04
394.269
394.446
394.59
394.711
400
400
400
400
399.999
399.649
399.332
399.039
398.765
398.503
398.252
398.011
397.777
397.551
397.332
397.12
396.915
396.718
396.529
396.342
396.156
395.97
395.785
395.6
395.418
395.238
395.059
394.881
394.706
394.534
394.364
394.197
394.033
393.872
393.716
394.033
394.262
394.439
394.583
394.705
400
400
400
400
399.999
399.649
399.333
399.041
398.766
398.505
398.255
398.013
397.779
397.553
397.334
397.121
396.916
396.719
396.529
396.342
396.155
395.968
395.781
395.596
395.413
395.231
395.052
394.874
394.698
394.525
394.354
394.187
394.022
393.861
393.704
394.021
394.25
394.427
394.571
394.692
400
400
400
400
399.999
399.649
399.332
399.04
398.765
398.503
398.252
398.01
397.775
397.548
397.327
397.113
396.907
396.708
396.516
396.327
396.137
395.947
395.758
395.57
395.384
395.2
395.017
394.837
394.659
394.483
394.31
394.139
393.972
393.807
393.647
393.966
394.196
394.372
394.516
394.637
400
400
400
400
399.999
399.649
399.332
399.038
398.761
398.498
398.244
397.998
397.76
397.528
397.303
397.084
396.872
396.667
396.468
396.27
396.073
395.875
395.678
395.483
395.289
395.096
394.905
394.717
394.53
394.345
394.163
393.984
393.807
393.633
393.463
393.788
394.019
394.197
394.339
394.462
400
400
400
400
399.999
399.641
399.315
399.011
398.724
398.448
398.18
397.92
397.666
397.417
397.173
396.935
396.702
396.477
396.255
396.034
395.812
395.591
395.37
395.15
394.931
394.714
394.497
394.283
394.07
393.859
393.65
393.444
393.24
393.039
392.842
393.194
393.44
393.629
393.779
393.912
400
400
400
400
399.999
399.592
399.219
398.871
398.539
398.217
397.902
397.594
397.29
396.99
396.695
396.405
396.121
395.842
395.567
395.292
395.016
394.739
394.463
394.187
393.913
393.639
393.367
393.097
392.828
392.561
392.296
392.034
391.775
391.519
391.272
391.806
392.165
392.437
392.659
392.847
400
400
400
400
399.999
399.776
399.524
399.255
398.977
398.694
398.41
398.125
397.84
397.556
397.273
396.992
396.713
396.435
396.159
395.885
395.614
395.344
395.073
394.8
394.526
394.252
393.978
393.707
393.437
393.17
392.906
392.646
392.391
392.141
391.903
392.15
392.386
392.598
392.784
392.947
400
400
400
400
400
399.808
399.595
399.369
399.137
398.902
398.667
398.433
398.2
397.968
397.739
397.512
397.288
397.065
396.846
396.629
396.414
396.201
395.988
395.774
395.559
395.345
395.131
394.919
394.709
394.501
394.296
394.094
393.895
393.702
393.514
393.628
393.75
393.867
393.974
394.075
400
400
400
400
400
399.812
399.605
399.388
399.166
398.943
398.721
398.501
398.284
398.069
397.858
397.651
397.446
397.245
397.047
396.853
396.662
396.473
396.284
396.095
395.905
395.716
395.529
395.343
395.159
394.978
394.8
394.625
394.454
394.288
394.129
394.23
394.339
394.445
394.542
394.634
400
400
400
400
400
399.812
399.605
399.388
399.167
398.946
398.726
398.509
398.295
398.085
397.878
397.676
397.477
397.282
397.091
396.904
396.721
396.54
396.358
396.176
395.995
395.814
395.635
395.458
395.283
395.111
394.942
394.777
394.616
394.459
394.309
394.41
394.517
394.622
394.72
394.811
400
400
400
400
400
399.811
399.604
399.388
399.167
398.946
398.727
398.511
398.298
398.088
397.883
397.682
397.485
397.292
397.104
396.919
396.738
396.559
396.38
396.201
396.022
395.844
395.667
395.493
395.321
395.151
394.985
394.823
394.665
394.513
394.366
394.466
394.574
394.678
394.776
394.867
400
400
400
400
400
399.811
399.603
399.386
399.165
398.944
398.724
398.507
398.295
398.086
397.881
397.681
397.484
397.292
397.104
396.92
396.74
396.561
396.383
396.204
396.025
395.848
395.672
395.499
395.327
395.159
394.994
394.832
394.675
394.523
394.378
394.479
394.586
394.691
394.789
394.88
400
400
400
400
400
399.811
399.603
399.386
399.165
398.944
398.724
398.508
398.295
398.087
397.883
397.683
397.487
397.296
397.108
396.924
396.744
396.565
396.386
396.208
396.029
395.853
395.677
395.504
395.333
395.165
395
394.839
394.682
394.53
394.385
394.485
394.593
394.698
394.796
394.887
400
400
400
400
400
399.81
399.602
399.385
399.164
398.943
398.723
398.507
398.295
398.087
397.884
397.684
397.489
397.298
397.11
396.925
396.743
396.564
396.385
396.207
396.029
395.852
395.677
395.504
395.333
395.165
395
394.839
394.682
394.53
394.385
394.486
394.593
394.698
394.796
394.887
400
400
400
400
400
399.811
399.603
399.386
399.165
398.944
398.725
398.509
398.298
398.091
397.888
397.69
397.495
397.304
397.116
396.929
396.745
396.565
396.386
396.208
396.03
395.854
395.68
395.507
395.337
395.168
395.003
394.842
394.685
394.533
394.388
394.488
394.595
394.7
394.798
394.889
400
400
400
400
400
399.811
399.603
399.386
399.165
398.945
398.726
398.511
398.3
398.094
397.892
397.695
397.501
397.309
397.119
396.93
396.744
396.562
396.383
396.205
396.028
395.853
395.679
395.507
395.336
395.168
395.003
394.842
394.685
394.533
394.387
394.487
394.594
394.699
394.797
394.888
400
400
400
400
400
399.811
399.604
399.387
399.167
398.947
398.728
398.514
398.304
398.099
397.898
397.702
397.508
397.315
397.123
396.933
396.745
396.561
396.38
396.203
396.028
395.853
395.68
395.508
395.338
395.17
395.005
394.844
394.687
394.534
394.387
394.487
394.595
394.699
394.797
394.888
400
400
400
400
400
399.811
399.605
399.388
399.168
398.948
398.73
398.516
398.306
398.102
397.902
397.707
397.513
397.318
397.124
396.933
396.745
396.559
396.377
396.201
396.026
395.852
395.68
395.508
395.339
395.171
395.006
394.845
394.687
394.534
394.386
394.486
394.594
394.698
394.796
394.887
400
400
400
400
400
399.812
399.606
399.39
399.17
398.95
398.732
398.518
398.309
398.104
397.906
397.71
397.516
397.32
397.126
396.935
396.747
396.561
396.378
396.201
396.027
395.855
395.683
395.512
395.343
395.175
395.01
394.848
394.69
394.537
394.387
394.487
394.595
394.699
394.797
394.888
400
400
400
400
400
399.813
399.607
399.391
399.172
398.952
398.734
398.519
398.31
398.105
397.906
397.711
397.515
397.32
397.126
396.935
396.747
396.561
396.378
396.201
396.028
395.856
395.685
395.515
395.346
395.179
395.014
394.852
394.693
394.539
394.388
394.488
394.595
394.7
394.798
394.888
400
400
400
400
400
399.813
399.608
399.392
399.173
398.953
398.735
398.52
398.31
398.105
397.905
397.709
397.514
397.318
397.124
396.934
396.746
396.56
396.378
396.201
396.028
395.858
395.688
395.518
395.35
395.182
395.017
394.855
394.696
394.541
394.39
394.49
394.597
394.701
394.799
394.89
400
400
400
400
400
399.814
399.61
399.395
399.176
398.956
398.737
398.522
398.311
398.105
397.904
397.708
397.512
397.316
397.123
396.932
396.744
396.558
396.376
396.199
396.028
395.858
395.689
395.52
395.352
395.185
395.02
394.857
394.698
394.542
394.388
394.488
394.595
394.7
394.797
394.888
400
400
400
400
400
399.815
399.611
399.396
399.177
398.957
398.738
398.522
398.311
398.104
397.902
397.704
397.509
397.313
397.119
396.929
396.741
396.555
396.373
396.196
396.025
395.857
395.688
395.52
395.352
395.185
395.02
394.857
394.697
394.54
394.386
394.486
394.593
394.698
394.796
394.887
400
400
400
400
400
399.816
399.612
399.398
399.179
398.958
398.739
398.523
398.311
398.103
397.9
397.702
397.506
397.311
397.117
396.926
396.738
396.552
396.37
396.195
396.024
395.856
395.688
395.519
395.352
395.185
395.019
394.856
394.696
394.539
394.384
394.484
394.591
394.696
394.794
394.885
400
400
400
400
400
399.817
399.613
399.399
399.18
398.96
398.741
398.524
398.311
398.103
397.899
397.699
397.504
397.309
397.115
396.925
396.737
396.551
396.37
396.195
396.024
395.855
395.686
395.518
395.35
395.183
395.018
394.854
394.694
394.535
394.38
394.48
394.587
394.692
394.79
394.882
400
400
400
400
400
399.817
399.614
399.4
399.181
398.961
398.742
398.525
398.312
398.102
397.898
397.698
397.502
397.308
397.116
396.926
396.739
396.554
396.375
396.2
396.028
395.858
395.688
395.519
395.351
395.183
395.018
394.854
394.693
394.534
394.378
394.478
394.586
394.691
394.79
394.881
400
400
400
400
400
399.818
399.615
399.402
399.182
398.962
398.742
398.525
398.312
398.102
397.896
397.695
397.499
397.307
397.116
396.928
396.742
396.56
396.381
396.206
396.032
395.86
395.69
395.52
395.35
395.182
395.016
394.852
394.691
394.531
394.375
394.475
394.583
394.688
394.787
394.878
400
400
400
400
400
399.818
399.616
399.403
399.184
398.963
398.744
398.527
398.313
398.103
397.897
397.695
397.498
397.306
397.118
396.931
396.747
396.566
396.388
396.212
396.037
395.864
395.692
395.521
395.351
395.183
395.016
394.852
394.69
394.531
394.374
394.474
394.582
394.688
394.786
394.878
400
400
400
400
400
399.818
399.617
399.403
399.184
398.964
398.744
398.527
398.313
398.102
397.896
397.694
397.496
397.304
397.117
396.932
396.75
396.57
396.391
396.214
396.038
395.864
395.691
395.519
395.349
395.18
395.013
394.849
394.686
394.527
394.37
394.47
394.579
394.684
394.783
394.875
400
400
400
400
400
399.819
399.617
399.404
399.186
398.966
398.746
398.529
398.315
398.104
397.898
397.695
397.498
397.306
397.119
396.936
396.754
396.574
396.395
396.217
396.041
395.866
395.692
395.52
395.349
395.18
395.013
394.848
394.686
394.526
394.369
394.47
394.578
394.684
394.783
394.874
400
400
400
400
400
399.819
399.618
399.405
399.186
398.966
398.747
398.529
398.315
398.104
397.897
397.694
397.497
397.305
397.118
396.935
396.754
396.573
396.394
396.215
396.038
395.862
395.688
395.515
395.344
395.174
395.007
394.842
394.68
394.519
394.362
394.463
394.571
394.677
394.776
394.868
400
400
400
400
400
399.819
399.619
399.406
399.188
398.969
398.75
398.532
398.318
398.107
397.9
397.697
397.499
397.307
397.12
396.936
396.754
396.573
396.392
396.213
396.035
395.858
395.683
395.509
395.337
395.167
394.999
394.833
394.67
394.509
394.351
394.452
394.56
394.665
394.764
394.856
400
400
400
400
400
399.819
399.618
399.406
399.187
398.967
398.748
398.53
398.314
398.102
397.894
397.69
397.491
397.297
397.108
396.922
396.737
396.553
396.37
396.188
396.008
395.828
395.65
395.474
395.299
395.126
394.956
394.787
394.621
394.457
394.296
394.397
394.505
394.611
394.709
394.801
400
400
400
400
400
399.82
399.618
399.405
399.185
398.963
398.741
398.52
398.301
398.085
397.872
397.663
397.458
397.259
397.063
396.87
396.678
396.486
396.295
396.106
395.917
395.729
395.543
395.358
395.175
394.993
394.814
394.636
394.46
394.287
394.117
394.219
394.328
394.435
394.533
394.626
400
400
400
400
400
399.814
399.606
399.384
399.154
398.92
398.684
398.449
398.214
397.981
397.75
397.522
397.298
397.077
396.86
396.644
396.429
396.213
395.998
395.784
395.57
395.357
395.145
394.935
394.725
394.517
394.311
394.106
393.903
393.703
393.505
393.62
393.742
393.86
393.968
394.069
400
400
400
400
399.999
399.783
399.536
399.27
398.993
398.711
398.426
398.139
397.852
397.566
397.282
396.999
396.72
396.445
396.172
395.9
395.627
395.354
395.081
394.809
394.537
394.265
393.994
393.725
393.457
393.19
392.925
392.662
392.401
392.143
391.891
392.14
392.377
392.59
392.778
392.942
400
400
400
400
400
399.86
399.699
399.52
399.325
399.116
398.897
398.669
398.434
398.193
397.948
397.699
397.448
397.195
396.941
396.687
396.432
396.177
395.92
395.661
395.401
395.139
394.876
394.614
394.353
394.092
393.834
393.578
393.325
393.076
392.834
392.907
393.001
393.105
393.211
393.309
400
400
400
400
400
399.879
399.745
399.597
399.439
399.272
399.097
398.917
398.732
398.543
398.352
398.159
397.965
397.77
397.575
397.38
397.185
396.99
396.794
396.597
396.399
396.201
396.002
395.804
395.606
395.409
395.214
395.021
394.83
394.642
394.457
394.457
394.472
394.497
394.528
394.563
400
400
400
400
400
399.882
399.751
399.61
399.459
399.302
399.138
398.97
398.8
398.627
398.452
398.277
398.102
397.927
397.753
397.58
397.408
397.236
397.064
396.891
396.718
396.545
396.372
396.2
396.029
395.859
395.691
395.525
395.362
395.201
395.045
395.046
395.059
395.081
395.107
395.138
400
400
400
400
400
399.882
399.751
399.61
399.46
399.304
399.142
398.977
398.809
398.639
398.469
398.299
398.129
397.96
397.792
397.625
397.46
397.295
397.131
396.966
396.8
396.635
396.471
396.307
396.145
395.984
395.825
395.668
395.514
395.363
395.216
395.22
395.235
395.257
395.285
395.317
400
400
400
400
400
399.882
399.751
399.61
399.46
399.304
399.143
398.978
398.811
398.643
398.474
398.305
398.136
397.969
397.803
397.638
397.475
397.313
397.151
396.988
396.825
396.662
396.501
396.34
396.18
396.022
395.866
395.712
395.561
395.414
395.27
395.276
395.291
395.314
395.342
395.375
400
400
400
400
400
399.881
399.75
399.609
399.459
399.302
399.14
398.975
398.808
398.64
398.471
398.302
398.134
397.967
397.802
397.638
397.475
397.314
397.152
396.989
396.827
396.665
396.504
396.344
396.185
396.028
395.873
395.72
395.57
395.423
395.281
395.287
395.302
395.326
395.354
395.388
400
400
400
400
400
399.881
399.75
399.609
399.459
399.302
399.14
398.976
398.809
398.641
398.472
398.304
398.136
397.97
397.805
397.641
397.478
397.316
397.155
396.992
396.83
396.669
396.508
396.348
396.19
396.033
395.878
395.725
395.575
395.429
395.287
395.293
395.309
395.332
395.361
395.394
400
400
400
400
400
399.881
399.75
399.608
399.458
399.301
399.14
398.975
398.808
398.64
398.472
398.304
398.136
397.97
397.805
397.64
397.477
397.315
397.153
396.991
396.829
396.668
396.507
396.347
396.189
396.032
395.877
395.724
395.575
395.428
395.286
395.292
395.308
395.332
395.36
395.394
400
400
400
400
400
399.881
399.75
399.609
399.459
399.302
399.14
398.976
398.81
398.642
398.475
398.307
398.141
397.975
397.809
397.644
397.479
397.316
397.154
396.992
396.831
396.669
396.509
396.35
396.191
396.034
395.879
395.727
395.577
395.431
395.288
395.294
395.31
395.334
395.362
395.396
400
400
400
400
400
399.881
399.75
399.609
399.459
399.302
399.141
398.977
398.811
398.644
398.477
398.31
398.144
397.977
397.811
397.644
397.479
397.315
397.152
396.99
396.829
396.668
396.508
396.348
396.19
396.033
395.879
395.726
395.576
395.429
395.287
395.293
395.309
395.332
395.361
395.394
400
400
400
400
400
399.882
399.751
399.61
399.46
399.304
399.143
398.979
398.813
398.647
398.481
398.315
398.149
397.982
397.814
397.647
397.481
397.315
397.152
396.99
396.829
396.668
396.509
396.349
396.191
396.035
395.88
395.727
395.577
395.431
395.287
395.293
395.309
395.332
395.361
395.394
400
400
400
400
400
399.882
399.751
399.61
399.461
399.305
399.144
398.98
398.815
398.649
398.483
398.318
398.152
397.984
397.816
397.648
397.481
397.314
397.15
396.988
396.827
396.667
396.508
396.349
396.191
396.035
395.88
395.727
395.577
395.43
395.286
395.292
395.308
395.331
395.36
395.393
400
400
400
400
400
399.882
399.752
399.611
399.462
399.306
399.145
398.982
398.817
398.651
398.486
398.321
398.154
397.986
397.817
397.649
397.482
397.316
397.151
396.989
396.829
396.669
396.51
396.352
396.194
396.038
395.883
395.73
395.58
395.432
395.288
395.293
395.309
395.332
395.361
395.394
400
400
400
400
400
399.883
399.753
399.612
399.463
399.307
399.146
398.983
398.817
398.652
398.487
398.321
398.154
397.986
397.817
397.649
397.482
397.316
397.151
396.989
396.829
396.67
396.511
396.353
396.196
396.04
395.885
395.732
395.582
395.434
395.289
395.294
395.31
395.333
395.361
395.394
400
400
400
400
400
399.883
399.753
399.613
399.464
399.308
399.147
398.983
398.818
398.652
398.486
398.321
398.153
397.985
397.816
397.649
397.481
397.315
397.15
396.988
396.829
396.671
396.513
396.355
396.198
396.042
395.888
395.735
395.584
395.436
395.29
395.296
395.311
395.334
395.363
395.396
400
400
400
400
400
399.884
399.755
399.615
399.466
399.31
399.149
398.985
398.819
398.652
398.486
398.32
398.152
397.984
397.815
397.647
397.48
397.314
397.149
396.987
396.828
396.671
396.513
396.356
396.2
396.044
395.889
395.737
395.586
395.437
395.29
395.295
395.31
395.334
395.362
395.395
400
400
400
400
400
399.884
399.755
399.615
399.466
399.311
399.15
398.985
398.819
398.652
398.485
398.318
398.151
397.982
397.813
397.645
397.478
397.311
397.147
396.985
396.826
396.669
396.512
396.355
396.199
396.043
395.889
395.736
395.585
395.435
395.288
395.294
395.309
395.332
395.36
395.393
400
400
400
400
400
399.885
399.756
399.616
399.468
399.312
399.151
398.986
398.819
398.652
398.484
398.317
398.149
397.98
397.812
397.643
397.476
397.31
397.145
396.984
396.825
396.668
396.511
396.355
396.199
396.043
395.889
395.735
395.584
395.434
395.287
395.292
395.307
395.331
395.359
395.392
400
400
400
400
400
399.885
399.757
399.617
399.469
399.313
399.152
398.987
398.82
398.652
398.483
398.315
398.148
397.979
397.81
397.642
397.475
397.309
397.144
396.983
396.825
396.668
396.511
396.354
396.198
396.042
395.887
395.734
395.582
395.432
395.284
395.289
395.305
395.328
395.356
395.389
400
400
400
400
400
399.885
399.757
399.618
399.469
399.314
399.152
398.988
398.82
398.652
398.483
398.315
398.147
397.979
397.811
397.644
397.477
397.311
397.148
396.987
396.828
396.67
396.513
396.356
396.199
396.043
395.888
395.735
395.583
395.432
395.284
395.289
395.305
395.328
395.356
395.39
400
400
400
400
400
399.886
399.758
399.619
399.47
399.314
399.153
398.988
398.821
398.652
398.483
398.314
398.145
397.978
397.811
397.645
397.479
397.314
397.152
396.991
396.832
396.673
396.515
396.357
396.2
396.044
395.888
395.734
395.582
395.431
395.282
395.287
395.303
395.326
395.354
395.388
400
400
400
400
400
399.886
399.759
399.62
399.471
399.315
399.154
398.989
398.822
398.653
398.483
398.314
398.146
397.979
397.813
397.647
397.483
397.319
397.158
396.997
396.836
396.677
396.518
396.36
396.202
396.046
395.89
395.736
395.583
395.432
395.283
395.288
395.303
395.327
395.355
395.388
400
400
400
400
400
399.886
399.759
399.62
399.472
399.316
399.155
398.99
398.822
398.653
398.483
398.313
398.145
397.978
397.812
397.648
397.484
397.321
397.16
396.998
396.837
396.677
396.518
396.359
396.201
396.044
395.888
395.734
395.581
395.43
395.28
395.285
395.301
395.324
395.353
395.386
400
400
400
400
400
399.886
399.759
399.621
399.473
399.317
399.156
398.992
398.824
398.655
398.485
398.316
398.147
397.98
397.815
397.651
397.488
397.326
397.164
397.002
396.841
396.68
396.521
396.361
396.203
396.046
395.89
395.735
395.582
395.431
395.281
395.286
395.302
395.325
395.353
395.386
400
400
400
400
400
399.886
399.759
399.621
399.473
399.318
399.157
398.992
398.824
398.655
398.485
398.315
398.146
397.979
397.814
397.651
397.488
397.325
397.162
397
396.839
396.678
396.517
396.358
396.199
396.041
395.885
395.73
395.577
395.425
395.275
395.28
395.296
395.319
395.347
395.38
400
400
400
400
400
399.887
399.76
399.622
399.474
399.32
399.159
398.994
398.827
398.658
398.488
398.318
398.149
397.982
397.817
397.653
397.489
397.326
397.162
396.999
396.837
396.675
396.514
396.354
396.194
396.036
395.879
395.723
395.569
395.416
395.265
395.27
395.285
395.308
395.336
395.368
400
400
400
400
400
399.887
399.76
399.621
399.474
399.318
399.157
398.992
398.824
398.654
398.483
398.312
398.141
397.973
397.806
397.64
397.474
397.308
397.143
396.977
396.812
396.648
396.484
396.321
396.159
395.997
395.837
395.679
395.522
395.366
395.212
395.216
395.23
395.252
395.279
395.311
400
400
400
400
400
399.887
399.76
399.621
399.472
399.315
399.152
398.984
398.813
398.639
398.464
398.289
398.114
397.939
397.767
397.594
397.421
397.248
397.075
396.902
396.73
396.557
396.385
396.213
396.043
395.873
395.704
395.536
395.37
395.205
395.042
395.043
395.055
395.076
395.102
395.133
400
400
400
400
400
399.884
399.752
399.607
399.45
399.284
399.11
398.929
398.744
398.554
398.363
398.169
397.975
397.781
397.587
397.393
397.197
397.001
396.804
396.607
396.409
396.212
396.014
395.817
395.62
395.423
395.227
395.033
394.839
394.646
394.456
394.455
394.469
394.494
394.526
394.56
400
400
400
400
400
399.864
399.707
399.53
399.336
399.129
398.909
398.681
398.444
398.202
397.956
397.707
397.456
397.204
396.952
396.699
396.444
396.187
395.929
395.67
395.41
395.15
394.89
394.629
394.369
394.109
393.851
393.593
393.336
393.082
392.831
392.903
392.997
393.1
393.207
393.305
400
400
400
400
400
399.893
399.774
399.644
399.503
399.352
399.19
399.018
398.838
398.65
398.455
398.253
398.046
397.834
397.618
397.398
397.176
396.95
396.721
396.489
396.253
396.014
395.774
395.532
395.29
395.047
394.804
394.562
394.321
394.082
393.848
393.844
393.854
393.875
393.905
393.932
400
400
400
400
400
399.907
399.807
399.699
399.585
399.464
399.336
399.203
399.065
398.922
398.775
398.624
398.469
398.312
398.153
397.991
397.828
397.663
397.496
397.326
397.154
396.981
396.807
396.631
396.456
396.28
396.104
395.929
395.754
395.582
395.411
395.373
395.342
395.319
395.3
395.284
400
400
400
400
400
399.909
399.811
399.708
399.599
399.485
399.366
399.243
399.116
398.985
398.852
398.716
398.578
398.439
398.298
398.156
398.014
397.871
397.726
397.579
397.431
397.282
397.132
396.983
396.833
396.683
396.534
396.386
396.238
396.093
395.95
395.921
395.897
395.878
395.862
395.85
400
400
400
400
400
399.909
399.811
399.708
399.6
399.487
399.369
399.248
399.123
398.995
398.865
398.733
398.6
398.465
398.33
398.194
398.058
397.921
397.783
397.643
397.502
397.361
397.219
397.077
396.936
396.794
396.654
396.515
396.377
396.241
396.107
396.083
396.062
396.046
396.034
396.026
400
400
400
400
400
399.908
399.811
399.708
399.6
399.487
399.37
399.249
399.125
398.998
398.869
398.738
398.606
398.473
398.339
398.205
398.071
397.936
397.8
397.662
397.524
397.385
397.246
397.106
396.967
396.829
396.692
396.555
396.42
396.288
396.157
396.135
396.116
396.101
396.09
396.085
400
400
400
400
400
399.908
399.811
399.707
399.599
399.486
399.368
399.247
399.123
398.996
398.867
398.736
398.604
398.471
398.338
398.204
398.071
397.936
397.8
397.663
397.525
397.387
397.248
397.11
396.972
396.834
396.697
396.562
396.428
396.296
396.166
396.144
396.126
396.112
396.102
396.097
400
400
400
400
400
399.908
399.811
399.707
399.599
399.486
399.368
399.247
399.123
398.996
398.868
398.737
398.606
398.473
398.34
398.206
398.073
397.938
397.802
397.665
397.528
397.39
397.251
397.113
396.975
396.838
396.701
396.566
396.432
396.301
396.172
396.15
396.132
396.118
396.108
396.103
400
400
400
400
400
399.908
399.811
399.707
399.599
399.485
399.368
399.246
399.122
398.996
398.867
398.737
398.605
398.473
398.34
398.206
398.071
397.936
397.801
397.664
397.526
397.388
397.25
397.112
396.974
396.837
396.7
396.565
396.431
396.299
396.17
396.148
396.13
396.117
396.106
396.102
400
400
400
400
400