/*--------------------------------*- C++ -*----------------------------------*\
| =========                 |                                                 |
| \\      /  F ield         | OpenFOAM: The Open Source CFD Toolbox           |
|  \\    /   O peration     | Version:  5.0                                   |
|   \\  /    A nd           | Web:      www.OpenFOAM.org                      |
|    \\/     M anipulation  |                                                 |
\*---------------------------------------------------------------------------*/
FoamFile
{
    version     2.0;
    format      ascii;
    class       volScalarField;
    location    "150/air";
    object      alphat;
}
// * * * * * * * * * * * * * * * * * * * * * * * * * * * * * * * * * * * * * //

dimensions      [1 -1 -1 0 0 0 0];

internalField   nonuniform List<scalar> 
243000
(
0.000138073
0.000138464
0.000136619
0.000132977
0.000127878
0.000121968
0.000116047
0.00011129
0.000108496
0.000109848
0.000115075
0.000121179
0.000127034
0.000132813
0.000137796
0.000142199
0.000144816
0.000146444
0.000143696
0.000140857
0.00013762
0.000134251
0.00013085
0.000127719
0.0001253
0.000124068
0.000124423
0.000126118
0.000129603
0.000134087
0.0006759
0.000691693
0.000701297
0.000701818
0.000695062
0.000683322
0.000670923
0.000665048
0.00067116
0.000700291
0.000741712
0.000786555
0.000828647
0.000870348
0.000904715
0.000932371
0.000946937
0.000951723
0.000925286
0.000894369
0.000857783
0.000819562
0.000780379
0.000743219
0.000709911
0.000682931
0.000663351
0.000649619
0.000643126
0.000642679
0.000754379
0.000772941
0.000782646
0.000782349
0.000774485
0.000761917
0.000749435
0.000744887
0.000754715
0.000788744
0.000830961
0.000876428
0.000919381
0.000962057
0.000997768
0.00102611
0.00104108
0.00104576
0.00101924
0.000987119
0.000948973
0.000908824
0.00086772
0.000828733
0.000793792
0.000765374
0.000744647
0.000730413
0.000723363
0.000722915
0.000811293
0.000831857
0.000841349
0.000840523
0.000832061
0.000819244
0.000807156
0.000804059
0.000817697
0.000853874
0.000896064
0.000940957
0.000983586
0.00102588
0.00106179
0.00108995
0.0011046
0.00110887
0.00108329
0.00105116
0.00101279
0.000972
0.000930196
0.000890455
0.000854778
0.00082567
0.000804377
0.000790062
0.000782777
0.000782127
0.000859681
0.000881289
0.000889991
0.00088848
0.000879378
0.00086637
0.000854777
0.000853185
0.000870374
0.00090734
0.000948969
0.00099276
0.00103452
0.00107597
0.00111166
0.00113949
0.00115373
0.00115772
0.00113357
0.0011021
0.00106408
0.00102327
0.000981304
0.000941282
0.000905271
0.000875834
0.000854326
0.000840134
0.00083283
0.000831984
0.000906014
0.000927928
0.000935163
0.000932474
0.00092242
0.000909045
0.000897848
0.000897796
0.000917946
0.000954858
0.000995586
0.00103808
0.00107875
0.00111924
0.0011546
0.00118226
0.00119628
0.00120032
0.00117788
0.00114746
0.00111009
0.00106954
0.00102768
0.000987636
0.000951525
0.000922018
0.000900537
0.000886655
0.00087952
0.000878598
0.000954013
0.000975634
0.000980817
0.00097631
0.000964809
0.000950724
0.000939735
0.000941188
0.000963418
0.000999781
0.00103932
0.00108042
0.00111988
0.00115945
0.00119455
0.00122226
0.00123636
0.00124087
0.00122043
0.0011914
0.00115493
0.00111487
0.00107332
0.00103341
0.000997367
0.000967958
0.000946707
0.000933338
0.000926577
0.000925733
0.00100601
0.00102685
0.00102942
0.00102243
0.00100891
0.000993677
0.000982625
0.000985406
0.00100871
0.00104414
0.00108223
0.00112182
0.00116
0.00119869
0.00123362
0.00126165
0.00127618
0.00128158
0.00126351
0.00123622
0.00120096
0.00116171
0.00112067
0.00108111
0.00104531
0.00101618
0.000995373
0.000982727
0.000976587
0.000975947
0.00106336
0.001083
0.00108253
0.00107236
0.00105619
0.00103936
0.00102791
0.0010316
0.00105507
0.00108913
0.00112549
0.00116343
0.00120021
0.00123801
0.00127283
0.0013014
0.0013167
0.0013234
0.00130811
0.00128301
0.00124937
0.00121133
0.00117118
0.00113228
0.00109697
0.00106834
0.00104824
0.00103656
0.00103129
0.001031
0.00112664
0.00114455
0.00114078
0.00112682
0.00110738
0.00108852
0.00107631
0.00108031
0.00110311
0.00113529
0.00116958
0.00120565
0.00124087
0.00127768
0.00131235
0.00134164
0.00135803
0.00136633
0.00135422
0.00133187
0.00130037
0.0012641
0.00122535
0.00118757
0.00115314
0.00112535
0.00110626
0.0010958
0.00109165
0.00109196
0.00119551
0.00121112
0.00120383
0.00118569
0.00116255
0.00114125
0.00112792
0.00113152
0.00115281
0.0011826
0.00121442
0.00124834
0.00128173
0.00131738
0.00135177
0.00138187
0.00139958
0.00140979
0.00140116
0.0013821
0.00135337
0.00131953
0.00128285
0.00124681
0.0012138
0.0011873
0.00116957
0.0011606
0.00115784
0.00115898
0.00126869
0.00128138
0.00127047
0.00124805
0.00122099
0.00119696
0.00118216
0.00118462
0.0012036
0.00123046
0.0012594
0.0012908
0.00132205
0.0013563
0.0013902
0.00142112
0.00144031
0.00145277
0.00144776
0.0014324
0.0014071
0.0013764
0.00134257
0.00130901
0.00127809
0.00125343
0.00123745
0.00123022
0.00122904
0.00123117
0.00134407
0.0013533
0.00133881
0.00131221
0.00128131
0.00125444
0.00123788
0.00123847
0.00125439
0.00127779
0.00130343
0.00133195
0.00136071
0.0013933
0.00142644
0.00145811
0.00147887
0.00149386
0.00149259
0.00148116
0.0014598
0.00143293
0.00140275
0.00137248
0.00134441
0.00132217
0.00130833
0.00130304
0.00130353
0.00130672
0.00141899
0.00142435
0.00140652
0.00137616
0.0013417
0.00131203
0.00129343
0.00129143
0.00130368
0.00132313
0.00134504
0.00137033
0.00139632
0.00142699
0.00145909
0.0014914
0.00151378
0.00153131
0.00153387
0.00152659
0.00150947
0.001487
0.00146119
0.00143502
0.00141057
0.00139135
0.00137995
0.00137671
0.00137882
0.00138302
0.00149077
0.00149216
0.0014714
0.00143781
0.00140018
0.00136779
0.00134679
0.00134162
0.0013496
0.00136467
0.00138249
0.00140423
0.0014273
0.00145589
0.00148675
0.00151955
0.00154354
0.00156354
0.00156963
0.00156667
0.00155407
0.00153637
0.00151545
0.00149407
0.00147401
0.0014584
0.00144979
0.00144861
0.0014522
0.0014573
0.00155695
0.00155466
0.0015312
0.00149475
0.00145438
0.00141942
0.00139574
0.0013869
0.00139007
0.00140036
0.00141385
0.00143191
0.00145211
0.00147852
0.00150805
0.00154119
0.00156676
0.00158908
0.00159844
0.00159969
0.00159167
0.00157894
0.00156323
0.00154709
0.001532
0.00152062
0.00151523
0.00151616
0.00152106
0.00152691
0.00161542
0.00160956
0.00158351
0.00154463
0.00150196
0.00146463
0.00143803
0.00142504
0.001423
0.00142824
0.00143733
0.00145177
0.00146927
0.00149354
0.00152175
0.00155511
0.00158209
0.00160666
0.00161897
0.00162405
0.00162055
0.00161278
0.00160243
0.00159177
0.00158198
0.00157529
0.0015736
0.00157682
0.00158309
0.00158952
0.00166384
0.00165452
0.00162613
0.00158527
0.00154075
0.00150122
0.0014715
0.00145393
0.00144655
0.00144666
0.00145144
0.00146253
0.00147757
0.00149983
0.00152681
0.00156031
0.00158849
0.001615
0.00163008
0.00163853
0.00163924
0.00163621
0.00163116
0.00162602
0.00162171
0.00161999
0.00162217
0.00162793
0.00163572
0.00164262
0.00169973
0.00168738
0.00165711
0.00161467
0.00156864
0.00152719
0.00149415
0.001472
0.0014595
0.00145494
0.00145582
0.00146399
0.00147668
0.00149735
0.00152309
0.00155638
0.00158524
0.00161356
0.00163085
0.00164229
0.00164658
0.00164787
0.00164783
0.00164808
0.00164926
0.00165253
0.00165863
0.00166698
0.00167617
0.00168341
0.00172131
0.0017064
0.00167437
0.00163091
0.00158376
0.00154077
0.00150501
0.00148151
0.00146652
0.00145926
0.00145797
0.00146394
0.00147501
0.00149354
0.0015172
0.00154758
0.00157432
0.00160205
0.00162103
0.00163467
0.00164168
0.00164658
0.00165118
0.00165672
0.00166293
0.00167099
0.00168107
0.00169201
0.00170246
0.00170986
0.00172732
0.00171077
0.00167813
0.0016343
0.00158808
0.0015475
0.0015125
0.00148698
0.00146974
0.00146039
0.00145722
0.00146161
0.00147135
0.0014882
0.00151018
0.0015381
0.00156311
0.00158897
0.00160675
0.00161958
0.00162675
0.00163253
0.00164076
0.00165053
0.00166154
0.0016739
0.00168765
0.00170123
0.00171286
0.00172026
0.00171576
0.00169788
0.00166744
0.00163008
0.00158839
0.00154983
0.00151543
0.00148852
0.00146926
0.00145785
0.00145343
0.00145679
0.00146554
0.00148111
0.00150172
0.00152757
0.00155113
0.00157513
0.00159176
0.00160371
0.00161085
0.00161747
0.00162608
0.00163659
0.00164854
0.00166153
0.00167708
0.00169293
0.00170565
0.00171277
0.00169022
0.00167686
0.00165185
0.00162025
0.00158321
0.0015469
0.00151331
0.00148542
0.00146454
0.00145181
0.00144671
0.00144949
0.00145754
0.00147217
0.00149163
0.00151572
0.00153798
0.00156017
0.00157562
0.0015866
0.00159352
0.00160039
0.00160889
0.00161955
0.00163192
0.00164526
0.00166063
0.00167488
0.00168531
0.00168995
0.00165994
0.00165052
0.00163087
0.00160429
0.00157158
0.00153783
0.0015054
0.00147752
0.00145603
0.00144254
0.00143727
0.0014398
0.0014474
0.00146125
0.00147972
0.00150227
0.00152332
0.00154379
0.00155797
0.00156791
0.00157441
0.00158104
0.00158901
0.00159918
0.00161124
0.00162442
0.00163899
0.00165142
0.00165952
0.00166185
0.00162389
0.00161817
0.00160391
0.00158234
0.001554
0.00152308
0.00149244
0.00146537
0.00144404
0.00143046
0.00142534
0.00142775
0.00143501
0.00144821
0.00146579
0.00148696
0.0015068
0.00152562
0.00153846
0.0015473
0.00155317
0.00155921
0.00156639
0.00157566
0.00158675
0.00159893
0.00161185
0.00162198
0.0016274
0.00162743
0.0015818
0.00157965
0.00157078
0.00155439
0.00153061
0.00150295
0.00147471
0.00144927
0.00142887
0.00141575
0.00141091
0.00141326
0.00142035
0.00143304
0.00144977
0.00146964
0.00148825
0.0015054
0.00151679
0.0015244
0.00152939
0.00153454
0.00154072
0.0015488
0.00155853
0.00156912
0.00157963
0.00158682
0.00158893
0.00158658
0.00153476
0.00153575
0.00153208
0.00152079
0.00150181
0.0014778
0.00145247
0.0014293
0.00141055
0.00139848
0.00139435
0.00139697
0.00140411
0.00141653
0.00143258
0.0014513
0.00146861
0.00148392
0.00149365
0.00149963
0.00150322
0.00150694
0.00151167
0.00151814
0.00152609
0.0015347
0.00154254
0.00154654
0.0015452
0.00154041
0.00148178
0.00148577
0.00148712
0.00148106
0.00146729
0.00144784
0.00142643
0.00140691
0.00139148
0.00138201
0.00137969
0.0013834
0.00139137
0.001404
0.0014199
0.00143793
0.00145413
0.0014674
0.00147496
0.00147841
0.00147928
0.00148009
0.00148179
0.00148522
0.00149008
0.00149557
0.00150001
0.00150025
0.00149537
0.00148793
0.00143959
0.00144633
0.00145137
0.00144999
0.00144249
0.00143006
0.00141581
0.00140341
0.00139442
0.00139005
0.00139096
0.00139646
0.00140535
0.00141805
0.00143353
0.00145056
0.0014657
0.00147729
0.001483
0.00148365
0.00148131
0.00147775
0.0014743
0.00147195
0.00147085
0.00147051
0.00146946
0.00146508
0.00145613
0.00144539
0.00153247
0.00153312
0.00153281
0.00153005
0.00152491
0.0015176
0.00150962
0.00150234
0.00149642
0.00149231
0.00149028
0.00149064
0.00149359
0.00149965
0.00150881
0.00152081
0.0015323
0.00154221
0.00154973
0.00155407
0.00155539
0.00155531
0.00155449
0.00155338
0.00155221
0.00155107
0.00154973
0.00154707
0.00154226
0.00153575
0.000194494
0.0001944
0.000190407
0.000183799
0.00017546
0.000166643
0.000158752
0.000153855
0.000152786
0.00015551
0.000159592
0.000165105
0.000170926
0.000177465
0.00018344
0.000188813
0.000192315
0.00019456
0.000191761
0.00018875
0.000184935
0.000181043
0.000177234
0.000173976
0.000171725
0.00017094
0.000172137
0.000175469
0.000181206
0.000188541
0.00132551
0.00136245
0.00131912
0.00123109
0.00112924
0.00103053
0.000957829
0.000926977
0.000933593
0.000963597
0.000999512
0.00104496
0.00109319
0.00115742
0.00121852
0.00126924
0.00130607
0.0013306
0.00130063
0.00126476
0.00121113
0.0011575
0.00110827
0.00107015
0.00104183
0.00102997
0.00103713
0.00106504
0.00111203
0.00117294
0.00247142
0.00258546
0.00252468
0.00238737
0.00221752
0.00205124
0.00192924
0.00188762
0.00191685
0.00198541
0.00206467
0.00216276
0.00226473
0.00239398
0.0025195
0.00261309
0.00267682
0.002722
0.0026655
0.00258994
0.00247962
0.00236461
0.00225548
0.0021661
0.00209906
0.00206293
0.00206235
0.0021034
0.00217945
0.00227819
0.00347104
0.003612
0.00352932
0.00336915
0.00318168
0.00299572
0.00286141
0.0028286
0.00288348
0.00298416
0.00310394
0.00324682
0.00339111
0.00356597
0.00373822
0.00385874
0.00393509
0.00399014
0.0039176
0.00381245
0.00365874
0.00349376
0.00333545
0.0032021
0.00309977
0.0030386
0.00302352
0.00306791
0.00315289
0.00325439
0.00425307
0.00438755
0.00430732
0.00417146
0.00399673
0.00382582
0.00371038
0.00369817
0.00378158
0.00391409
0.00405462
0.00421522
0.00438324
0.00457952
0.00477324
0.00490672
0.00498646
0.00503792
0.004961
0.00484452
0.0046811
0.00449797
0.00431079
0.00414203
0.00400241
0.00390987
0.00387558
0.00390421
0.00397866
0.00406576
0.00489752
0.00501424
0.00494247
0.00483108
0.00468268
0.00454304
0.00445754
0.00446917
0.00456783
0.00471136
0.00486717
0.0050392
0.00521437
0.00541158
0.00560602
0.00574129
0.00581942
0.00586195
0.00578961
0.00566748
0.00549469
0.00529902
0.00509955
0.00491802
0.00476527
0.00465878
0.00460854
0.0046201
0.00467336
0.004742
0.0054563
0.00555232
0.00548883
0.00539545
0.00527352
0.00516595
0.00510951
0.00514072
0.00524731
0.00539326
0.00555164
0.00572291
0.00589368
0.00608113
0.00626426
0.00639397
0.00646696
0.00650259
0.0064388
0.00632024
0.00615006
0.00595501
0.00575561
0.00557164
0.00541489
0.00530157
0.00524125
0.00524
0.00527299
0.00532601
0.00597051
0.00604565
0.00598811
0.0059054
0.00580317
0.00572036
0.00568573
0.00572869
0.00583618
0.00597743
0.00612999
0.00629248
0.00645202
0.00662338
0.0067912
0.00691142
0.00697892
0.00701202
0.00696053
0.0068529
0.00669324
0.00650712
0.00631543
0.00613654
0.00598246
0.00586869
0.00580463
0.00579569
0.00581683
0.00585823
0.00646549
0.00651921
0.00646696
0.00638777
0.00629743
0.00623022
0.00620864
0.00625472
0.00635647
0.00648745
0.00662861
0.00677755
0.0069217
0.00707417
0.00722496
0.00733486
0.00739852
0.00743312
0.00739768
0.00730684
0.00716351
0.00699211
0.00681378
0.00664554
0.00649935
0.00639022
0.00632779
0.00631653
0.00633261
0.00636688
0.00695207
0.00698539
0.00693443
0.0068554
0.00677099
0.00671147
0.00669557
0.00673622
0.00682677
0.0069426
0.00706823
0.00720027
0.00732641
0.00745828
0.00759125
0.00769137
0.00775321
0.00779212
0.00777572
0.00770676
0.00758458
0.00743295
0.00727298
0.00712037
0.00698664
0.0068864
0.0068296
0.00682018
0.00683509
0.00686553
0.00742963
0.00744354
0.00738986
0.00730999
0.00722774
0.00717039
0.00715472
0.00718222
0.00725717
0.00735376
0.00746016
0.00757266
0.00767858
0.00778861
0.00790303
0.00799438
0.00805633
0.00810229
0.00810595
0.00806231
0.00796551
0.0078381
0.0077013
0.0075691
0.0074523
0.00736464
0.00731633
0.00731136
0.00732697
0.00735515
0.00788968
0.00788418
0.00782663
0.00774522
0.00766294
0.00760412
0.00758271
0.00759599
0.00764907
0.00772309
0.00780728
0.00789779
0.0079817
0.00806875
0.00816397
0.00824762
0.00831131
0.00836756
0.00838999
0.00837318
0.00830505
0.00820555
0.0080961
0.00798865
0.0078929
0.0078212
0.00778362
0.00778457
0.00780177
0.00782802
0.00831901
0.00829414
0.00823235
0.00814908
0.00806579
0.00800334
0.0079727
0.00797057
0.00799716
0.00804613
0.00810584
0.00817253
0.00823294
0.00829642
0.00837201
0.00844891
0.00851582
0.00858514
0.00862632
0.00863436
0.00859618
0.00852697
0.00844786
0.00836861
0.0082975
0.00824468
0.00821956
0.00822707
0.00824706
0.0082708
0.00870116
0.00865743
0.00859205
0.00850757
0.00842311
0.00835569
0.00831306
0.00829234
0.00829407
0.00831403
0.00834771
0.00838956
0.00842591
0.00846597
0.00852211
0.00859299
0.0086645
0.00874619
0.0088079
0.00883854
0.00882917
0.00879104
0.0087437
0.00869479
0.008651
0.00861948
0.00860773
0.00862113
0.00864646
0.00866678
0.00901988
0.00895946
0.00889174
0.00880682
0.00872086
0.00864716
0.00859006
0.00854831
0.00852426
0.00851667
0.00852204
0.0085386
0.00855255
0.00857047
0.00860811
0.00867319
0.0087512
0.00884471
0.00892366
0.00897627
0.00899278
0.00898577
0.00896998
0.00895191
0.00893668
0.00892841
0.00893162
0.00895095
0.00898203
0.00899986
0.0092603
0.00918656
0.00911594
0.00902958
0.00894191
0.00886121
0.00878841
0.00872459
0.00867443
0.00863936
0.00861847
0.00861098
0.00860534
0.00860367
0.00862436
0.00868395
0.00876929
0.00887418
0.00896812
0.00904015
0.00907982
0.00909962
0.00911357
0.00912565
0.00913829
0.00915444
0.00917448
0.00920196
0.0092379
0.00925608
0.00940684
0.00932273
0.00924768
0.00916071
0.00907237
0.00898486
0.00889594
0.00880899
0.00873408
0.00867371
0.00862884
0.00860096
0.00858066
0.00856209
0.00856841
0.00862304
0.00871271
0.00883034
0.0089353
0.0090225
0.00908162
0.00912421
0.00916438
0.00920352
0.00924345
0.0092831
0.00931938
0.00935776
0.00939911
0.0094214
0.00943852
0.00935639
0.00927484
0.00918944
0.0091024
0.00900863
0.00890385
0.00879344
0.00869766
0.00861697
0.00855166
0.00850859
0.00848022
0.00844769
0.00844389
0.00849275
0.00858585
0.0087092
0.00882141
0.008919
0.0089928
0.00905309
0.00911483
0.00917604
0.0092407
0.00930251
0.00935653
0.00940183
0.0094491
0.00947646
0.00935136
0.00927182
0.00919029
0.00911061
0.00902807
0.00892931
0.00881136
0.00867611
0.00855969
0.00845836
0.00837023
0.00831702
0.0082884
0.00824691
0.00824538
0.00830326
0.00840112
0.00852552
0.00864293
0.00874609
0.00882591
0.00889356
0.00896333
0.00903783
0.00912558
0.00920888
0.00927672
0.00932815
0.00937271
0.00940324
0.00914931
0.00906853
0.00899452
0.00892637
0.00885459
0.00876509
0.00864837
0.00849153
0.00831473
0.00816198
0.00805009
0.00799413
0.00796741
0.00792522
0.00793805
0.00802314
0.00814323
0.00828186
0.00840067
0.00849834
0.00857336
0.0086439
0.00872531
0.00883145
0.00892817
0.00900987
0.00908482
0.00913824
0.00917381
0.00920488
0.00883262
0.00875294
0.00870179
0.00865495
0.00857996
0.0084543
0.00828235
0.00808742
0.00789112
0.00773055
0.0076173
0.00756934
0.00754443
0.00751265
0.00754859
0.00765411
0.00778698
0.00794219
0.008071
0.00817104
0.00824275
0.0083104
0.00838702
0.00849128
0.00860333
0.00869896
0.00877825
0.00883467
0.00885855
0.00888869
0.00841046
0.00833355
0.00828356
0.0082076
0.00810797
0.00795484
0.0077585
0.00755046
0.00736041
0.00720757
0.00710898
0.00707904
0.00706334
0.00706198
0.0071257
0.00725045
0.00739139
0.00755001
0.00767382
0.00775578
0.00780597
0.00784999
0.00791286
0.00801008
0.00813451
0.0082584
0.00835243
0.00841647
0.00844396
0.00846583
0.00783399
0.00773753
0.00767243
0.0075964
0.00748784
0.00732871
0.00713257
0.00693918
0.00677125
0.00664407
0.00657449
0.0065724
0.00658762
0.00662259
0.00671627
0.00686081
0.0070089
0.00716529
0.00727377
0.00732959
0.00734762
0.00735158
0.00736346
0.00741401
0.00751106
0.00762477
0.00772946
0.00781537
0.00787448
0.00789757
0.00705641
0.00697977
0.00693064
0.00687351
0.00677837
0.00663765
0.00647059
0.00631339
0.00618726
0.00610373
0.00608529
0.00612176
0.00616782
0.00623777
0.00635909
0.00652357
0.00668003
0.00683455
0.00692549
0.00695573
0.00693938
0.0068973
0.006846
0.00681593
0.00683568
0.00690651
0.00698792
0.00705433
0.00710637
0.0071245
0.00620279
0.00616457
0.00614329
0.00611504
0.00605781
0.00596371
0.00585038
0.0057502
0.00569118
0.0056812
0.00571163
0.00577172
0.00584205
0.00593908
0.00608425
0.00626734
0.00643215
0.00658725
0.00666568
0.0066765
0.00663361
0.00655582
0.0064569
0.00636067
0.00628656
0.00624417
0.00623617
0.00624947
0.00626492
0.0062686
0.005435
0.0054237
0.00543226
0.00543907
0.00543339
0.00540252
0.00537296
0.00536632
0.00538302
0.00542029
0.00547431
0.0055488
0.00563548
0.00575218
0.00591249
0.00611031
0.00628229
0.00644051
0.00651369
0.00651425
0.00645658
0.00635795
0.00622831
0.00608487
0.00594238
0.00580935
0.00569267
0.00560792
0.00554257
0.0054961
0.0050271
0.0050237
0.00504471
0.00507006
0.0051081
0.00513832
0.00516948
0.0052109
0.00526082
0.00531666
0.00538165
0.00546226
0.00555863
0.00568722
0.00585352
0.00606209
0.00624173
0.00640364
0.0064791
0.0064797
0.00641926
0.00631374
0.00617007
0.00600096
0.00581886
0.00563496
0.00546048
0.0053127
0.0051887
0.0050909
0.00494502
0.00495062
0.00497907
0.0050124
0.00506031
0.00511161
0.00516272
0.00521959
0.0052795
0.00534172
0.00541034
0.00549364
0.00559766
0.00573858
0.00591513
0.0061374
0.00633115
0.00650057
0.00658671
0.00659428
0.00653806
0.00643117
0.00628067
0.00609861
0.00589696
0.00568851
0.00548577
0.00530362
0.00514365
0.00501347
0.00515286
0.00516189
0.00518783
0.00521649
0.00525706
0.00530446
0.00535492
0.00541116
0.00547138
0.0055359
0.00560986
0.00570104
0.0058221
0.00598919
0.00620054
0.0064563
0.00667638
0.00686339
0.00696763
0.00698557
0.00693296
0.00681884
0.00665651
0.00645959
0.00624039
0.00601247
0.00578941
0.00558105
0.00539025
0.00522954
0.00609333
0.00609558
0.00610135
0.00610602
0.00611743
0.00613889
0.00617008
0.00620903
0.00625726
0.00631767
0.00639361
0.00649969
0.00664931
0.00686447
0.0071408
0.00746221
0.0077392
0.00797141
0.00811067
0.00815282
0.00810653
0.00798615
0.00781311
0.00760136
0.00736372
0.00711432
0.00686673
0.00662738
0.00639708
0.00618488
0.000237073
0.000235615
0.000229066
0.000220141
0.000209872
0.000199906
0.00019133
0.000186409
0.000185364
0.000187334
0.000190591
0.000195794
0.000201631
0.000208733
0.000215183
0.000220919
0.000224651
0.000226952
0.000224032
0.000221027
0.000217001
0.000213115
0.000209316
0.000206433
0.000204965
0.000205093
0.000207344
0.000212017
0.000219002
0.000227843
0.00190236
0.00196445
0.00192236
0.00183912
0.00173597
0.00161905
0.00153485
0.00150889
0.00152909
0.00157578
0.00162445
0.00166481
0.00170786
0.00176825
0.00183068
0.00187312
0.00189989
0.00191372
0.0018854
0.00184632
0.00179265
0.00174117
0.00169519
0.00165993
0.00162048
0.00160665
0.0016196
0.00166301
0.00172673
0.0018037
0.00361881
0.00374536
0.00367857
0.00353939
0.00338101
0.00321617
0.00310209
0.00308209
0.00313698
0.00323514
0.00332072
0.00341041
0.00350583
0.00363322
0.00376352
0.00384347
0.00389224
0.00392591
0.00386941
0.00378796
0.00367257
0.00355462
0.00344262
0.00335182
0.00327142
0.00322744
0.00322755
0.00328421
0.00337603
0.00348344
0.0050613
0.00517876
0.00507073
0.00492699
0.00477226
0.00461687
0.00451626
0.00451803
0.00460182
0.00473243
0.00485234
0.00498752
0.00512913
0.00530881
0.00549285
0.0056006
0.00566408
0.00571398
0.00563735
0.00552255
0.0053575
0.00518316
0.00501184
0.00486464
0.00475208
0.00467697
0.00464728
0.00469201
0.00478183
0.00488299
0.00614263
0.00623966
0.00614669
0.00603348
0.00590365
0.00578445
0.00572143
0.00575474
0.00587847
0.00601142
0.00615898
0.00632975
0.00650599
0.00671773
0.00693391
0.0070601
0.0071307
0.00718611
0.00709701
0.0069589
0.00675808
0.00654255
0.00634138
0.00617291
0.00601808
0.00590035
0.00584269
0.00585607
0.00591738
0.00599137
0.00699421
0.00707109
0.00699933
0.00691515
0.00681861
0.00674343
0.00671802
0.00677729
0.00691048
0.00706903
0.00724374
0.00743662
0.00763183
0.00785873
0.00808029
0.00821449
0.00828696
0.00833718
0.00825903
0.00809706
0.00787836
0.00763742
0.00740368
0.00719873
0.00702156
0.00688946
0.00681388
0.0067995
0.00682667
0.00687191
0.00770541
0.00776465
0.00770967
0.00764627
0.00757744
0.00753583
0.00754187
0.00761421
0.00775944
0.007936
0.00812796
0.00833261
0.00853541
0.00875769
0.0089697
0.00910183
0.00917222
0.00921607
0.0091403
0.00898071
0.00875633
0.00850409
0.00825468
0.00803059
0.00784018
0.0076976
0.00760938
0.0075765
0.00758057
0.00760554
0.00834273
0.00838564
0.00834037
0.00828828
0.00823692
0.00821575
0.00824199
0.00832108
0.00847327
0.00865799
0.00885689
0.00906307
0.00926126
0.00946748
0.00965928
0.00977957
0.00984471
0.00988603
0.00982243
0.0096746
0.00945706
0.00920682
0.00895615
0.00872754
0.00853362
0.00838771
0.00829452
0.00825299
0.00824559
0.00825835
0.00894568
0.00897168
0.00893145
0.00888267
0.00883983
0.00882884
0.00886483
0.00894889
0.00909641
0.00927939
0.00947532
0.00967426
0.00985769
0.010039
0.0102031
0.0103059
0.0103647
0.0104087
0.0103658
0.0102398
0.0100402
0.00980387
0.00956441
0.0093432
0.00915444
0.00901165
0.00891985
0.0088768
0.00886512
0.00887209
0.0095312
0.00954019
0.00950043
0.00945036
0.00941012
0.00940255
0.00944124
0.00952759
0.0096618
0.00983302
0.0100173
0.0102023
0.0103637
0.0105142
0.0106463
0.0107292
0.0107817
0.010832
0.0108154
0.0107199
0.0105471
0.0103347
0.0101165
0.00991201
0.00973541
0.00960084
0.00951452
0.0094728
0.00946108
0.00946608
0.0101005
0.0100927
0.0100497
0.00999644
0.0099555
0.00994753
0.00998426
0.0100668
0.0101882
0.0103387
0.0105026
0.0106696
0.0108051
0.0109222
0.0110208
0.0110836
0.0111302
0.0111895
0.0111999
0.0111399
0.0109996
0.0108186
0.0106291
0.0104479
0.0102889
0.0101662
0.0100871
0.010048
0.0100379
0.0100431
0.0106443
0.0106199
0.0105719
0.0105148
0.0104719
0.0104617
0.0104939
0.0105677
0.0106755
0.0108051
0.0109429
0.011087
0.0111959
0.0112802
0.0113466
0.0113904
0.0114317
0.0115013
0.0115364
0.0115114
0.0114062
0.0112604
0.0111032
0.0109493
0.0108117
0.010703
0.0106317
0.0105961
0.0105882
0.0105949
0.0111466
0.0111057
0.0110525
0.0109919
0.0109471
0.0109348
0.0109614
0.0110245
0.0111168
0.011227
0.0113402
0.0114582
0.0115418
0.0115968
0.0116347
0.0116625
0.011699
0.0117785
0.0118363
0.0118402
0.0117692
0.011657
0.0115303
0.0114032
0.0112884
0.0111956
0.0111332
0.0111021
0.0110976
0.0111056
0.0115869
0.0115303
0.0114722
0.0114092
0.0113642
0.0113511
0.0113722
0.0114249
0.0115024
0.0115942
0.0116874
0.0117816
0.0118426
0.0118744
0.011891
0.0119066
0.0119394
0.0120278
0.0121037
0.0121306
0.0120854
0.0120009
0.0119002
0.0117966
0.011701
0.0116229
0.011571
0.0115461
0.0115458
0.0115551
0.0119414
0.011871
0.0118088
0.0117456
0.0117032
0.0116918
0.011709
0.0117534
0.0118189
0.0118961
0.0119737
0.0120512
0.0120947
0.0121115
0.0121164
0.012126
0.0121566
0.012253
0.0123417
0.012383
0.0123519
0.0122843
0.0122014
0.0121146
0.0120336
0.0119675
0.0119232
0.0119049
0.0119092
0.01192
0.0121845
0.0121044
0.0120389
0.0119793
0.0119446
0.0119374
0.0119535
0.0119934
0.0120516
0.0121196
0.0121886
0.0122579
0.0122923
0.0123043
0.0123087
0.0123219
0.0123522
0.0124571
0.0125536
0.0125985
0.0125678
0.012503
0.0124256
0.0123454
0.0122705
0.0122104
0.0121704
0.0121553
0.0121633
0.0121761
0.0122902
0.0122095
0.0121412
0.0120919
0.0120691
0.0120697
0.0120878
0.0121278
0.0121852
0.0122514
0.0123224
0.0123909
0.0124278
0.0124467
0.0124625
0.0124902
0.0125273
0.0126419
0.0127418
0.0127777
0.0127369
0.0126572
0.0125703
0.0124829
0.012402
0.012338
0.012295
0.0122774
0.0122854
0.0122996
0.0122463
0.0121641
0.0121006
0.0120686
0.0120601
0.0120724
0.0120952
0.0121402
0.0122048
0.0122777
0.0123637
0.0124406
0.0124921
0.0125299
0.0125689
0.0126236
0.0126761
0.0128061
0.0129064
0.0129258
0.0128655
0.0127523
0.0126392
0.0125287
0.0124268
0.012346
0.0122888
0.0122591
0.0122593
0.0122722
0.0120632
0.0119753
0.0119268
0.0119044
0.0119042
0.0119319
0.0119609
0.0120147
0.0121009
0.0121996
0.0123117
0.0124111
0.0124891
0.0125558
0.0126249
0.0127116
0.0127888
0.0129388
0.0130399
0.0130387
0.0129463
0.0127949
0.0126315
0.0124808
0.0123436
0.012234
0.0121542
0.0121018
0.0120826
0.0120884
0.0117115
0.0116171
0.0115755
0.0115702
0.0115929
0.0116431
0.0117031
0.0117831
0.0118905
0.0120356
0.0121806
0.0123151
0.0124296
0.0125332
0.0126419
0.0127673
0.0128719
0.0130364
0.0131327
0.0131076
0.0129748
0.0127752
0.0125577
0.012338
0.0121603
0.0120067
0.0118835
0.0117982
0.0117577
0.0117454
0.0112132
0.0111108
0.0110733
0.0110771
0.0111353
0.0112242
0.0113296
0.0114541
0.0116108
0.0117971
0.01199
0.0121675
0.0123246
0.0124731
0.0126313
0.0128023
0.0129408
0.0131187
0.0132093
0.0131532
0.0129704
0.0127079
0.0124309
0.0121153
0.0118726
0.0116485
0.0114767
0.011362
0.0112977
0.0112615
0.010579
0.0104858
0.0104653
0.0104938
0.0105792
0.0107141
0.0108822
0.0110718
0.0112802
0.0115097
0.011748
0.0119875
0.0121946
0.012394
0.0126078
0.0128298
0.0130124
0.0132053
0.0132912
0.0132022
0.0129707
0.0126472
0.0122683
0.0118682
0.0115257
0.0112311
0.0109876
0.0108154
0.0107138
0.0106517
0.00989698
0.00982698
0.00983132
0.0098958
0.0100185
0.0102048
0.0104235
0.0106672
0.0109347
0.011222
0.0115142
0.0117909
0.0120534
0.0123156
0.0125909
0.0128711
0.0131037
0.0133194
0.0134021
0.0132892
0.0130153
0.0126301
0.0121474
0.0116527
0.0112002
0.0108154
0.0104912
0.0102488
0.0100923
0.00999145
0.00926841
0.00922057
0.00925438
0.00935506
0.00951498
0.00974496
0.0100149
0.0103097
0.0106282
0.0109745
0.0113196
0.0116406
0.0119477
0.0122648
0.0126069
0.0129527
0.0132372
0.0134902
0.0135759
0.0134573
0.0131651
0.0127078
0.0121284
0.0115348
0.0109675
0.0104848
0.0100721
0.00975043
0.00952675
0.00937893
0.00878911
0.00876149
0.00882116
0.00895052
0.00914268
0.00940878
0.00972047
0.0100603
0.0104276
0.0108168
0.0111983
0.0115531
0.0119017
0.012276
0.0126895
0.0131074
0.0134464
0.0137444
0.013847
0.0137273
0.0133977
0.0128872
0.0122539
0.0115849
0.0109265
0.0103303
0.00982246
0.00941515
0.00911499
0.00891362
0.00856712
0.00855308
0.00862895
0.00877599
0.00899097
0.00928382
0.00962786
0.0100024
0.0104024
0.0108128
0.0112102
0.0115831
0.0119631
0.0123916
0.0128816
0.0133778
0.013777
0.0141245
0.0142577
0.0141358
0.013795
0.0132689
0.0126027
0.0118784
0.0111545
0.0104647
0.00985808
0.00935651
0.0089713
0.00870648
0.00874771
0.00873931
0.00881944
0.00896972
0.00919234
0.00949604
0.00985068
0.010232
0.0106334
0.0110357
0.0114236
0.0117965
0.0121963
0.0126746
0.0132416
0.013821
0.0142879
0.0146874
0.0148744
0.0147885
0.0144527
0.0139315
0.0132561
0.0125036
0.0117344
0.0109896
0.0103035
0.00971714
0.0092422
0.00890252
0.00951069
0.00950169
0.00957493
0.00971194
0.00991859
0.0102015
0.0105287
0.0108765
0.0112362
0.011593
0.0119431
0.0122936
0.012697
0.0132178
0.0138546
0.0145166
0.0150561
0.0155082
0.0157726
0.0157455
0.0154579
0.0149699
0.0143194
0.0135792
0.0128042
0.0120385
0.0113177
0.0106694
0.0101127
0.00968582
0.0111693
0.01115
0.0111964
0.0112908
0.0114419
0.0116506
0.0118898
0.0121422
0.0123992
0.0126585
0.0129276
0.0132223
0.0136044
0.0141494
0.0148332
0.0155649
0.0161777
0.0166855
0.0170444
0.0171068
0.0169147
0.0164996
0.0159404
0.0152979
0.0145893
0.0138545
0.0131338
0.0124611
0.0118654
0.0113728
0.0143144
0.0142452
0.0141938
0.0141664
0.0141743
0.0142178
0.0142719
0.0143307
0.0143979
0.0144826
0.0146051
0.01479
0.0151085
0.015631
0.0163125
0.0170796
0.0177579
0.0183333
0.0187935
0.0189859
0.0189357
0.0186871
0.0183365
0.0178708
0.0173318
0.0167528
0.0161639
0.015588
0.0150438
0.0145547
0.000266569
0.000263087
0.000254961
0.00024486
0.000233599