/*--------------------------------*- C++ -*----------------------------------*\
| =========                 |                                                 |
| \\      /  F ield         | OpenFOAM: The Open Source CFD Toolbox           |
|  \\    /   O peration     | Version:  5.0                                   |
|   \\  /    A nd           | Web:      www.OpenFOAM.org                      |
|    \\/     M anipulation  |                                                 |
\*---------------------------------------------------------------------------*/
FoamFile
{
    version     2.0;
    format      ascii;
    class       volScalarField;
    location    "150/air";
    object      epsilon;
}
// * * * * * * * * * * * * * * * * * * * * * * * * * * * * * * * * * * * * * //

dimensions      [0 2 -3 0 0 0 0];

internalField   nonuniform List<scalar> 
243000
(
1.84614
2.17388
2.42755
2.58454
2.63316
2.601
2.53457
2.51529
2.61098
3.01945
3.75362
4.64708
5.59099
6.56997
7.42964
8.1349
8.42387
8.39999
7.55229
6.67933
5.77112
4.89796
4.09548
3.40119
2.83951
2.4169
2.12327
1.91532
1.79033
1.70078
1.37072
1.47367
1.53907
1.54177
1.49411
1.41727
1.34232
1.31427
1.36613
1.57094
1.86477
2.21633
2.58282
2.98241
3.33925
3.64406
3.80677
3.85023
3.53281
3.18972
2.81519
2.45615
2.12103
1.8322
1.59635
1.42052
1.30158
1.22261
1.18589
1.18287
1.90429
2.05386
2.13494
2.13151
2.06352
1.96185
1.8685
1.84514
1.9435
2.23597
2.614
3.0586
3.52078
4.02188
4.47354
4.85241
5.05463
5.10362
4.71921
4.28531
3.80809
3.34538
2.91213
2.53666
2.22839
1.99642
1.83806
1.73487
1.68442
1.67995
2.36729
2.55626
2.64643
2.63769
2.55442
2.43559
2.33207
2.32026
2.47194
2.82982
3.27011
3.7779
4.30424
4.87015
5.38481
5.80971
6.03239
6.08035
5.66272
5.17146
4.62546
4.08886
3.58389
3.14332
2.77928
2.50349
2.31408
2.19295
2.13173
2.12396
2.8163
3.03601
3.12692
3.10976
3.0113
2.87808
2.76865
2.77409
2.98098
3.3897
3.87761
4.43048
5.00206
5.61334
6.17435
6.63339
6.8693
6.91742
6.48606
5.9582
5.36188
4.76746
4.20447
3.70992
3.29878
2.98588
2.7706
2.63514
2.56534
2.5537
3.29803
3.54192
3.62355
3.59042
3.47257
3.32391
3.20999
3.2374
3.49655
3.94661
4.47236
5.06029
5.66671
6.31407
6.9142
7.40519
7.65465
7.70905
7.27631
6.72414
6.08705
5.44235
4.82729
4.28361
3.82927
3.48258
3.24441
3.0973
3.02087
3.00591
3.85464
4.11823
4.17952
4.11895
3.97331
3.80437
3.68493
3.7378
4.04236
4.52791
5.08474
5.70203
6.33739
7.01741
7.65548
8.1817
8.44998
8.52002
8.096
7.52887
6.85675
6.16543
5.4998
4.90743
4.41018
4.03038
3.771
3.61451
3.5339
3.51681
4.5282
4.80789
4.83584
4.73252
4.54647
4.34918
4.22081
4.2993
4.6421
5.15758
5.74018
6.38276
7.0436
7.75524
8.43332
9.00113
9.29646
9.3937
8.99023
8.41739
7.71565
6.98063
6.2643
5.62212
5.08027
4.66672
4.3872
4.22356
4.14186
4.12384
5.3604
5.65232
5.6336
5.46784
5.22349
4.98692
4.84394
4.9444
5.31719
5.85618
6.4589
7.12284
7.80542
8.54826
9.26903
9.88602
10.2189
10.3559
9.98819
9.42144
8.69819
7.92436
7.159
6.4666
5.87862
5.43028
5.13195
4.96424
4.88532
4.86869
6.39422
6.69057
6.60976
6.35858
6.03429
5.74404
5.57851
5.69297
6.08556
6.63938
7.25485
7.93428
8.63384
9.40578
10.1706
10.8444
11.226
11.416
11.1014
10.5574
9.82555
9.02311
8.21484
7.47543
6.84216
6.35985
6.0454
5.87821
5.80815
5.79865
7.6672
7.95389
7.79231
7.43118
7.00365
6.64218
6.44349
6.55955
6.95846
7.51567
8.13333
8.81979
9.5285
10.3248
11.1318
11.869
12.3103
12.5667
12.3234
11.8231
11.102
10.2878
9.45017
8.67324
8.00103
7.48944
7.16413
7.0043
6.95112
6.95743
9.19831
9.45534
9.19361
8.69872
8.14485
7.69321
7.44818
7.54969
7.93721
8.48249
9.08847
9.7696
10.4764
11.2886
12.132
12.9367
13.447
13.784
13.6282
13.1957
12.5104
11.7089
10.8643
10.0682
9.37092
8.84067
8.5138
8.37054
8.3441
8.37504
10.9803
11.1827
10.8027
10.1536
9.45345
8.89397
8.58767
8.65442
9.00908
9.52334
10.0999
10.7599
11.4498
12.2663
13.1356
14.0086
14.5946
15.027
14.9741
14.6308
14.0098
13.2521
12.4319
11.6446
10.9456
10.4143
10.0996
9.98467
9.9949
10.0582
12.9724
13.0921
12.5796
11.7632
10.9031
10.2214
9.83819
9.84604
10.1443
10.6046
11.1301
11.7499
12.4061
13.2129
14.0946
15.0319
15.6975
16.2338
16.2992
16.0652
15.5357
14.8559
14.0975
13.3566
12.6892
12.1822
11.8974
11.8242
11.8792
11.9809
15.0978
15.1105
14.4596
13.4721
12.4459
11.6314
11.1537
11.0778
11.2921
11.6715
12.1219
12.6796
13.2883
14.0716
14.9518
15.9449
16.6906
17.3322
17.5192
17.4163
17.0043
16.4355
15.7773
15.125
14.5317
14.0826
13.8495
13.8292
13.9355
14.0786
17.2534
17.1482
16.3557
15.1975
14.006
13.054
12.466
12.2802
12.3784
12.6482
13.0005
13.4789
14.029
14.7774
15.6456
16.6828
17.5047
18.2468
18.5546
18.5932
18.3194
17.8917
17.3694
16.8454
16.3685
16.0184
15.8662
15.9104
16.072
16.2571
19.3235
19.0879
18.1515
16.8323
15.4863
14.399
13.6859
13.3634
13.3159
13.4514
13.6891
14.0777
14.5637
15.2682
16.1166
17.1844
18.0715
18.9077
19.3282
19.5045
19.3819
19.1141
18.7592
18.3995
18.076
17.8631
17.826
17.9519
18.1754
18.3996
21.1646
20.7882
19.716
18.2563
16.7763
15.5615
14.7107
14.2286
14.0173
14.0037
14.1195
14.417
14.8383
15.493
16.3145
17.3978
18.3342
19.2474
19.7724
20.0725
20.0994
19.9982
19.8283
19.6583
19.5199
19.477
19.5782
19.8075
20.1032
20.3635
22.6097
22.0996
20.9131
19.3446
17.7596
16.4321
15.4375
14.788
14.4127
14.2586
14.2605
14.4739
14.8288
15.4373
16.2233
17.2973
18.2568
19.2321
19.8352
20.2437
20.4
20.4554
20.4719
20.5025
20.5685
20.7129
20.9679
21.3098
21.6778
21.9694
23.5134
22.8865
21.6086
19.9729
18.3149
16.9069
15.7962
15.0498
14.5881
14.3563
14.2978
14.454
14.7641
15.3098
16.0295
16.9972
17.8786
18.8472
19.5026
19.9833
20.2368
20.425
20.6122
20.843
21.1059
21.439
21.8555
22.3114
22.7461
23.0575
23.7717
23.0754
21.7705
20.1173
18.453
17.1036
15.9996
15.1911
14.6574
14.3604
14.2528
14.3689
14.644
15.1403
15.8049
16.6835
17.4997
18.3752
18.9754
19.4149
19.6695
19.9115
20.2234
20.608
21.0526
21.5555
22.1199
22.6868
23.1797
23.4971
23.284
22.5475
21.3139
19.9229
18.4433
17.1532
16.0593
15.211
14.6108
14.2591
14.1231
14.2149
14.4643
14.9226
15.5408
16.3435
17.101
17.89
18.4375
18.8356
19.0847
19.3384
19.6514
20.0484
20.5144
21.0344
21.6902
22.3415
22.8771
23.1821
22.1776
21.6488
20.6777
19.5198
18.2284
17.017
15.9477
15.0792
14.4419
14.0596
13.913
13.9934
14.2252
14.6539
15.2322
15.9688
16.6702
17.3794
17.8738
18.2295
18.4642
18.7095
19.007
19.3924
19.8564
20.3786
20.9964
21.5648
21.9923
22.1867
20.933
20.5768
19.8518
18.9039
17.7907
16.6773
15.6574
14.8062
14.1654
13.7741
13.6317
13.7084
13.9287
14.3327
14.8747
15.552
16.1987
16.8345
17.2746
17.5865
17.7977
18.0193
18.2876
18.6416
19.076
19.574
20.1305
20.6075
20.927
21.0231
19.5345
19.3311
18.8355
18.0967
17.161
16.1645
15.2189
14.4133
13.797
13.417
13.2868
13.3629
13.575
13.9573
14.4651
15.0872
15.6796
16.2469
16.6317
16.898
17.0779
17.2665
17.4972
17.807
18.1918
18.6344
19.1016
19.4706
19.6735
19.6787
18.0134
17.9408
17.6539
17.1198
16.3664
15.503
14.6541
13.9183
13.348
12.9954
12.8813
12.9598
13.1676
13.5307
14.0055
14.5755
15.1141
15.6146
15.9425
16.159
16.2994
16.4471
16.6335
16.8908
17.2146
17.5839
17.9469
18.1964
18.272
18.191
16.4275
16.4591
16.3546
16.009
15.4354
14.7147
13.9775
13.3299
12.8275
12.5199
12.434
12.522
12.7314
13.0834
13.5328
14.0584
14.5461
14.9781
15.2448
15.3998
15.4839
15.5741
15.7021
15.8942
16.1449
16.4296
16.6874
16.8197
16.7771
16.6207
14.7685
14.8886
14.9396
14.7707
14.3792
13.8235
13.2275
12.7056
12.3153
12.0928
12.0623
12.185
12.4204
12.7805
13.2305
13.7401
14.193
14.5602
14.7569
14.8253
14.8111
14.7956
14.8153
14.8969
15.0343
15.2008
15.3354
15.3417
15.1908
14.9616
13.5879
13.7771
13.9257
13.8941
13.6926
13.3541
12.9736
12.6599
12.4465
12.3631
12.4237
12.6034
12.8768
13.2588
13.7275
14.254
14.7104
15.0481
15.2056
15.1865
15.0452
14.8754
14.7224
14.6141
14.5549
14.5271
14.4819
14.3439
14.0775
13.7582
16.6762
16.6702
16.6293
16.5143
16.3335
16.0978
15.8532
15.6419
15.4792
15.3759
15.3389
15.3789
15.5026
15.7296
16.0559
16.4553
16.8342
17.1708
17.4277
17.5835
17.6322
17.6022
17.5374
17.4648
17.395
17.3308
17.2664
17.1678
17.0079
16.7934
5.20985
6.07564
6.62994
6.87643
6.84616
6.67852
6.53954
6.71203
7.34106
8.49821
9.93109
11.6993
13.5893
15.664
17.534
19.0639
19.7606
19.7236
17.9781
16.0852
14.0106
12.0134
10.1762
8.5939
7.31031
6.32622
5.63026
5.17179
4.91708
4.76331
3.01297
3.35608
3.64463
3.82452
3.903
3.93499
3.97791
4.14045
4.49678
5.04831
5.69665
6.44085
7.22027
8.02421
8.75101
9.31947
9.56488
9.47798
8.80469
8.0232
7.18711
6.36374
5.5914
4.8994
4.31485
3.84172
3.48758
3.23314
3.07888
2.97651
2.69297
2.94142
3.15517
3.2734
3.32711
3.35959
3.41431
3.56174
3.83464
4.21772
4.65835
5.14509
5.65063
6.1622
6.6234
6.9834
7.14307
7.0616
6.63824
6.1241
5.57102
5.02158
4.5033
4.03256
3.62531
3.28885
3.03202
2.84071
2.72113
2.64748
2.71231
2.97071
3.15945
3.2386
3.24349
3.23924
3.27175
3.39943
3.63237
3.94858
4.30016
4.68135
5.07986
5.48481
5.85359
6.14024
6.27294
6.20877
5.89064
5.48634
5.04215
4.59568
4.16981
3.78075
3.44075
3.15941
2.94637
2.78755
2.69464
2.65713
2.98486
3.2841
3.44291
3.46252
3.41167
3.35778
3.35535
3.46456
3.67216
3.94928
4.2695
4.61853
4.97605
5.34564
5.69083
5.95395
6.08119
6.04281
5.77856
5.42018
5.00127
4.57744
4.17915
3.8221
3.51496
3.26441
3.07646
2.94851
2.88333
2.87963
3.4538
3.80183
3.92867
3.8937
3.78139
3.67171
3.63359
3.72594
3.92646
4.19564
4.50125
4.83729
5.18624
5.55606
5.91178
6.17798
6.3132
6.3042
6.07395
5.74331
5.33665
4.91406
4.50906
4.14326
3.82935
3.57967
3.40332
3.29888
3.262
3.28979
4.12075
4.51791
4.61126
4.52414
4.34742
4.17918
4.10528
4.18098
4.37892
4.64784
4.95318
5.29213
5.64874
6.03529
6.41909
6.70476
6.86016
6.88325
6.68565
6.37413
5.9663
5.52861
5.0994
4.70789
4.37132
4.10925
3.9349
3.84824
3.83667
3.89332
4.99295
5.43421
5.49425
5.35704
5.11615
4.88911
4.77903
4.83527
5.02949
5.29848
5.60748
5.95441
6.32501
6.73487
7.15287
7.46792
7.65227
7.71164
7.55361
7.26472
6.85648
6.40182
5.94342
5.51886
5.15089
4.86764
4.68801
4.61404
4.62129
4.70303
6.07462
6.55041
6.57847
6.39417
6.09229
5.80882
5.66175
5.69255
5.87578
6.13833
6.44649
6.79788
7.18029
7.61114
8.06178
8.41023
8.6293
8.72936
8.62113
8.36865
7.97273
7.51165
7.03137
6.57652
6.17635
5.86793
5.67758
5.61017
5.62929
5.73088
7.3617
7.85735
7.8561
7.62897
7.27235
6.93673
6.7511
6.74822
6.90728
7.15065
7.44657
7.79177
8.17674
8.61861
9.09332
9.47497
9.7315
9.86917
9.82373
9.63148
9.26981
8.82412
8.34077
7.86914
7.44469
7.11322
6.90907
6.84087
6.86464
6.97894
8.83695
9.33512
9.30865
9.04378
8.64087
8.25878
8.03065
7.98628
8.10194
8.30911
8.57547
8.89882
9.27048
9.70802
10.1927
10.6041
10.899
11.0824
11.1036
10.9899
10.6912
10.2902
9.8327
9.36812
8.93662
8.59084
8.37295
8.29648
8.31662
8.4338
10.4699
10.9537
10.9036
10.6075
10.168
9.74578
9.47142
9.3742
9.4261
9.5765
9.79194
10.074
10.4121
10.8269
11.3047
11.7398
12.0725
12.3204
12.4057
12.3759
12.1708
11.848
11.4519
11.027
10.6141
10.2696
10.0422
9.95081
9.95885
10.0675
12.2176
12.6689
12.5933
12.2718
11.8064
11.3514
11.0297
10.8647
10.8349
10.9053
11.0449
11.2647
11.5467
11.922
12.3768
12.8275
13.1958
13.5305
13.6939
13.7359
13.638
13.4253
13.1284
12.782
12.421
12.1004
11.8709
11.7596
11.7472
11.8365
14.0155
14.416
14.3208
13.9888
13.5104
13.0269
12.6497
12.3986
12.269
12.2354
12.2727
12.4095
12.6167
12.9419
13.3628
13.8208
14.2187
14.6053
14.885
15.0165
15.0229
14.9458
14.7826
14.5544
14.2842
14.017
13.7917
13.6538
13.6116
13.6735
15.8093
16.1568
16.0577
15.7289
15.2388
14.7204
14.2675
13.9056
13.6484
13.4811
13.3995
13.4289
13.5654
13.8412
14.2279
14.6859
15.1066
15.5333
15.8745
16.1155
16.2607
16.3362
16.3356
16.2587
16.1163
15.9386
15.744
15.5767
15.4919
15.5197
17.5762
17.8724
17.7554
17.4064
16.8983
16.3369
15.7915
15.2968
14.88
14.5568
14.3475
14.2784
14.3486
14.5906
14.9546
15.4078
15.845
16.2951
16.6937
17.0298
17.3057
17.539
17.7136
17.8125
17.8273
17.7741
17.6577
17.4985
17.3633
17.3467
19.2902
19.4752
19.3089
18.9393
18.4167
17.8048
17.1484
16.4935
15.9012
15.4226
15.0971
14.9495
14.9689
15.1975
15.5521
15.9993
16.4408
16.8967
17.3347
17.7417
18.1278
18.5072
18.8595
19.1472
19.3374
19.4312
19.4374
19.3455
19.203
19.1331
20.8217
20.8485
20.6486
20.2702
19.7331
19.0546
18.2664
17.4432
16.6846
16.0758
15.6658
15.4697
15.4669
15.7032
16.0638
16.5045
16.9328
17.3754
17.8249
18.27
18.7285
19.224
19.7334
20.2047
20.5805
20.8294
20.9518
20.966
20.8811
20.7769
21.9854
21.9503
21.7351
21.3589
20.7982
20.0357
19.1073
18.1325
17.2456
16.5527
16.1044
15.8963
15.9052
16.1712
16.5549
16.9885
17.3891
17.7982
18.2288
18.6714
19.1532
19.7114
20.334
20.9607
21.5108
21.9198
22.1638
22.2444
22.1776
22.0415
22.8422
22.7694
22.5544
22.1814
21.581
20.7302
19.6848
18.6013
17.6375
16.9129
16.474
16.2881
16.3404
16.6533
17.0703
17.4984
17.8706
18.2367
18.6238
19.0251
19.4825
20.0358
20.7075
21.4372
22.1228
22.6772
23.0432
23.1969
23.164
22.9995
23.3962
23.3048
23.0971
22.7312
22.1084
21.173
20.0541
18.9261
17.9453
17.2408
16.8445
16.7048
16.819
17.1792
17.6164
18.0405
18.3907
18.7204
19.0588
19.4025
19.805
20.307
20.945
21.6855
22.4396
23.1075
23.5817
23.8119
23.8176
23.6399
23.6475
23.5672
23.4147
23.081
22.4378
21.4872
20.3555
19.2242
18.2612
17.6102
17.2718
17.1876
17.3551
17.7255
18.1632
18.5776
18.9144
19.2179
19.5131
19.8037
20.1488
20.5954
21.1701
21.869
22.6166
23.3049
23.8236
24.0918
24.114
23.9509
23.7005
23.669
23.5959
23.317
22.7009
21.7673
20.6577
19.5569
18.6545
18.0712
17.7879
17.7367
17.8984
18.2327
18.6364
19.0279
19.3577
19.6467
19.906
20.1591
20.4616
20.8701
21.4008
22.0429
22.7344
23.3901
23.9023
24.1601
24.1493
24.0091
23.5997
23.6636
23.6979
23.4959
22.9347
22.0528
21.0028
19.988
19.1706
18.6334
18.343
18.2564
18.3568
18.6033
18.921
19.2743
19.6075
19.894
20.1213
20.3471
20.6232
21.0122
21.5402
22.1711
22.8216
23.4077
23.8428
24.0558
24.0006
23.8686
23.3501
23.5224
23.6781
23.6031
23.1329
22.3455
21.41
20.5038
19.7335
19.1473
18.7675
18.6017
18.5806
18.6946
18.928
19.2344
19.5523
19.8318
20.0338
20.2387
20.4945
20.8632
21.3759
22.0003
22.6567
23.2337
23.6494
23.791
23.6852
23.5414
22.7586
23.0688
23.3821
23.4784
23.1715
22.5157
21.6633
20.7762
19.9783
19.3301
18.8268
18.5275
18.4534
18.4899
18.6033
18.8205
19.0989
19.3428
19.5083
19.6925
19.9303
20.2781
20.7686
21.3783
22.0375
22.6355
23.0549
23.164
23.0206
22.8638
21.5769
21.9837
22.4059
22.6175
22.4396
21.8496
21.0422
20.2028
19.4263
18.7639
18.2818
17.9977
17.8444
17.7795
17.7721
17.8704
18.0745
18.2472
18.3853
18.548
18.7617
19.0756
19.5166
20.0682
20.6781
21.2587
21.6949
21.8436
21.7427
21.617
19.0022
19.4017
19.8201
20.0534
19.9538
19.4774
18.8016
18.111
17.4841
16.965
16.5829
16.3341
16.1721
16.067
15.995
16.0417
16.2301
16.3845
16.5107
16.6355
16.7896
17.0124
17.3195
17.7096
18.1543
18.6002
18.965
19.1235
19.0806
19.01
14.9835
15.2031
15.446
15.5761
15.5072
15.212
14.7958
14.3858
14.027
13.7399
13.5403
13.4207
13.3658
13.3657
13.3974
13.5446
13.7834
13.9771
14.0975
14.1682
14.2148
14.2686
14.3456
14.4638
14.6223
14.8031
14.9687
15.0486
15.0295
15.0057
11.1648
11.1591
11.1617
11.1249
11.0282
10.8672
10.6772
10.5043
10.365
10.2675
10.2198
10.2267
10.2933
10.4327
10.624
10.9208
11.2426
11.5083
11.6722
11.7436
11.7396
11.6823
11.5965
11.5076
11.4317
11.3744
11.3334
11.2923
11.2438
11.2087
9.51501
10.8784
11.5978
11.8685
11.755
11.5803
11.5058
11.9814
13.0967
14.821
16.8703
19.4952
22.285
25.4518
28.2568
30.4942
31.4608
31.2794
28.6597
25.827
22.6397
19.6101
16.7937
14.3743
12.4585
10.9645
9.88172
9.16996
8.72939
8.45595
4.6257
5.14781
5.51303
5.70122
5.74726
5.76512
5.80358
5.99281
6.38435
6.98536
7.7173
8.62474
9.60196
10.6525
11.6048
12.3271
12.6272
12.4689
11.61
10.6174
9.53649
8.49721
7.54267
6.70917
6.04228
5.49767
5.08138
4.77842
4.58261
4.46844
3.91692
4.29409
4.55999
4.68526
4.69508
4.67269
4.68291
4.79896
5.05801
5.44789
5.93504
6.50277
7.10813
7.73803
8.3079
8.73084
8.90066
8.75604
8.2471
7.62543
6.95515
6.30689
5.71775
5.20271
4.78008
4.43954
4.18158
3.98789
3.86029
3.80069
3.84724
4.20945
4.44746
4.51278
4.47027
4.40117
4.37877
4.4569
4.66356
4.96616
5.34176
5.76382
6.20828
6.66337
7.07246
7.37254
7.49172
7.37307
7.01702
6.55992
6.06288
5.57577
5.13458
4.75166
4.42855
4.17266
3.99259
3.85762
3.77134
3.74744
4.15033
4.51446
4.69738
4.70243
4.61375
4.50273
4.44679
4.49309
4.65103
4.91264
5.22204
5.5625
5.91524
6.27734
6.60298
6.84025
6.93709
6.8506
6.58686
6.2286
5.83103
5.43315
5.05854
4.72611
4.46577
4.27422
4.13814
4.0491
4.00154
4.00951
4.69749
5.06659
5.19833
5.15426
5.01978
4.86903
4.78258
4.80139
4.93148
5.14688
5.40027
5.68004
5.97265
6.27634
6.55906
6.76315
6.85162
6.80171
6.59274
6.31569
5.98571
5.64926
5.32993
5.04472
4.81552
4.65098
4.54723
4.49242
4.47677
4.50862
5.45904
5.83168
5.91856
5.83508
5.6599
5.47228
5.35578
5.34253
5.43437
5.60114
5.80421
6.03584
6.28132
6.54827
6.80451
6.99207
7.0811
7.06607
6.91642
6.69808
6.42685
6.14415
5.8714
5.62526
5.42214
5.27823
5.19683
5.16692
5.17342
5.22425
6.4116
6.78388
6.83451
6.72034
6.51056
6.28777
6.13686
6.08775
6.13255
6.24651
6.39858
6.58483
6.78987
7.0286
7.26693
7.44865
7.54383
7.56052
7.46569
7.30526
7.09295
6.86715
6.6434
6.43671
6.26085
6.13574
6.07085
6.05677
6.07603
6.13884
7.52705
7.89412
7.91949
7.78457
7.54851
7.29437
7.10551
7.01281
7.00243
7.05614
7.15288
7.29235
7.45928
7.67439
7.89955
8.08025
8.1829
8.22705
8.18356
8.08142
7.93281
7.77274
7.60844
7.44988
7.30786
7.20305
7.15035
7.14252
7.16451
7.22996
8.77031
9.12682
9.13739
8.9918
8.73932
8.45911
8.22991
8.08376
8.01135
7.99809
8.03483
8.1247
8.25465
8.45012
8.6675
8.84868
8.9564
9.01962
9.02007
8.97497
8.89476
8.81071
8.71955
8.62261
8.52546
8.44582
8.40229
8.39236
8.40699
8.4655
10.1042
10.4441
10.4473
10.2987
10.0382
9.73674
9.46585
9.25847
9.11613
9.03342
9.00913
9.04819
9.14425
9.32608
9.54022
9.72197
9.83086
9.90396
9.93496
9.93777
9.92721
9.92567
9.92002
9.89932
9.86066
9.81403
9.78002
9.76304
9.76309
9.80773
11.491
11.8079
11.8068
11.659
11.3945
11.0737
10.7593
10.4858
10.2698
10.1174
10.0362
10.0291
10.1001
10.2753
10.4921
10.6741
10.7793
10.8513
10.8979
10.9315
10.9819
11.062
11.1482
11.2153
11.2485
11.2465
11.2286
11.2058
11.1888
11.2169
12.8913
13.1774
13.171
13.0236
12.7543
12.4123
12.0512
11.7106
11.4231
11.2068
11.0772
11.0359
11.0966
11.2754
11.5027
11.6847
11.7819
11.8405
11.885
11.9275
12.0174
12.1685
12.3442
12.5046
12.6217
12.6779
12.6879
12.6685
12.6385
12.6509
14.26
14.505
14.4895
14.3382
14.0595
13.6918
13.2822
12.8791
12.5294
12.2625
12.1001
12.0428
12.1135
12.3093
12.5559
12.7384
12.8238
12.8568
12.8809
12.9066
13.0053
13.2049
13.4552
13.7043
13.9113
14.0405
14.0944
14.0924
14.061
14.0624
15.5428
15.7345
15.7032
15.5415
15.248
14.8522
14.3986
13.9445
13.5489
13.2519
13.0791
13.0309
13.1347
13.3628
13.6387
13.8217
13.894
13.8905
13.8766
13.8584
13.9331
14.1456
14.4424
14.762
15.0517
15.264
15.3791
15.4116
15.3956
15.3943
16.6742
16.7992
16.7443
16.5666
16.2578
15.8406
15.3578
14.8705
14.4523
14.1521
13.9969
13.9882
14.1473
14.4218
14.7367
14.92
14.9801
14.9329
14.8676
14.7812
14.7973
14.98
15.2854
15.6444
15.9957
16.2828
16.4695
16.5543
16.5705
16.5785
17.5776
17.6262
17.5457
17.3569
17.048
16.6275
16.1338
15.6369
15.2244
14.9516
14.8432
14.9068
15.1381
15.4686
15.8285
16.0144
16.0631
15.9709
15.8469
15.6778
15.6013
15.7101
15.9813
16.3388
16.7191
17.0552
17.3038
17.4472
17.508
17.5373
18.1814
18.1632
18.072
17.8993
17.614
17.2067
16.7215
16.241
15.8637
15.6475
15.6161
15.7752
16.089
16.478
16.8823
17.0736
17.1153
16.9832
16.7994
16.5415
16.3522
16.3456
16.5399
16.8513
17.2198
17.5728
17.8579
18.0429
18.1429
18.1979
18.4703
18.4213
18.351
18.2226
17.9781
17.5958
17.1371
16.6979
16.3794
16.2407
16.3146
16.5768
16.9752
17.4176
17.8584
18.0577
18.0988
17.9395
17.7039
17.3613
17.0568
16.9069
16.987
17.2138
17.529
17.8601
18.1473
18.3475
18.4669
18.5374
18.5023
18.4607
18.4439
18.381
18.1894
17.8356
17.4082
17.0254
16.7804
16.7348
16.9266
17.2883
17.7642
18.2485
18.7125
18.9225
18.9688
18.7998
18.5286
18.1164
17.7055
17.4127
17.3464
17.4634
17.6932
17.976
18.2423
18.427
18.5342
18.6071
18.3716
18.3784
18.4375
18.445
18.2884
17.9592
17.5616
17.2396
17.0732
17.1304
17.4303
17.8775
18.4148
18.9216
19.3957
19.6179
19.6781
19.5178
19.2273
18.766
18.2676
17.8521
17.6347
17.6361
17.7715
18.0059
18.2227
18.3591
18.4322
18.4942
18.1901
18.2518
18.3682
18.4225
18.306
18.0021
17.6306
17.3531
17.2618
17.4105
17.7937
18.3019
18.8748
19.3823
19.8549
20.0912
20.177
20.042
19.7479
19.2597
18.6984
18.1845
17.8373
17.7182
17.7758
17.9324
18.1121
18.2228
18.2636
18.3089
17.9535
18.0597
18.2195
18.3013
18.2073
17.9209
17.5925
17.3649
17.331
17.5379
17.9688
18.5056
19.0871
19.5763
20.0359
20.289
20.4166
20.3199
20.0371
19.5469
18.9489
18.3634
17.9166
17.6933
17.6682
17.7618
17.9036
17.9941
18.0176
18.0617
17.6068
17.7506
17.9432
18.0449
17.9688
17.7018
17.4006
17.2155
17.2285
17.4581
17.8957
18.429
18.993
19.4497
19.8884
20.1655
20.3518
20.3041
20.0455
19.5658
18.937
18.3101
17.8182
17.5272
17.4278
17.4595
17.5595
17.6293
17.6464
17.6978
17.0626
17.2316
17.4397
17.554
17.4913
17.2478
16.9797
16.8304
16.8665
17.1022
17.5174
18.0151
18.5347
18.9535
19.3724
19.6878
19.9487
19.9642
19.7403
19.2946
18.6783
18.0373
17.5063
17.1497
16.9847
16.9621
17.0168
17.0629
17.0768
17.1317
16.1895
16.3614
16.5648
16.6819
16.6366
16.43
16.2068
16.0935
16.1437
16.3692
16.7435
17.1914
17.6611
18.0512
18.4606
18.8354
19.1794
19.277
19.0936
18.6796
18.095
17.4607
16.9065
16.4984
16.2653
16.1807
16.1812
16.1922
16.1932
16.2388
14.8849
15.0288
15.2001
15.3025
15.276
15.118
14.9522
14.8855
14.9578
15.1725
15.5087
15.9077
16.3311
16.7128
17.1421
17.606
18.0398
18.2309
18.0959
17.7211
17.1767
16.5559
15.9851
15.5273
15.2161
15.0428
14.9659
14.9243
14.8995
14.9248
13.075
13.1582
13.2731
13.3478
13.3404
13.248
13.16
13.1548
13.2594
13.4727
13.7798
14.1409
14.5395
14.9466
15.4403
16.0307
16.5609
16.85
16.7699
16.4394
15.9321
15.3339
14.7467
14.234
13.8322
13.5459
13.3562
13.2273
13.1452
13.1262
10.9294
10.9238
10.9648
11.0004
11.005
10.9798
10.9723
11.0255
11.1606
11.374
11.6609
12.0014
12.4041
12.8735
13.475
14.2171
14.8408
15.2206
15.1979
14.9162
14.445
13.8704
13.274
12.7148
12.2289
11.8303
11.5176
11.2777
11.1073
11.0164
8.8993
8.81252
8.78261
8.77253
8.76935
8.77436
8.80521
8.88195
9.01455
9.20626
9.46252
9.78654
10.2037
10.7458
11.4607
12.3409
13.0369
13.4815
13.5191
13.288
12.8595
12.3176
11.7369
11.1668
10.6413
10.1774
9.78282
9.45705
9.20325
9.0299
13.4307
15.0017
15.8325
16.1777
16.1173
15.89
15.7751
16.1954
17.1311
18.6477
20.4567
22.81
25.3577
28.5123
31.3701
33.7546
34.8162
34.9454
32.4101
29.6922
26.6373
23.7466
21.0381
18.6409
16.5635
14.8766
13.6484
12.8399
12.2918
11.8911
6.13307
6.74604
7.16418
7.38471
7.42277
7.36325
7.32215
7.43338
7.72556
8.22972
8.8669
9.64633
10.5247
11.5407
12.5012
13.2537
13.5845
13.4846
12.6662
11.7381
10.7352
9.7787
8.90176
8.12253
7.4507
6.89448
6.46924
6.16321
5.95488
5.84926
5.03903
5.45517
5.75533
5.89933
5.8974
5.8083
5.73257
5.76534
5.92121
6.20688
6.58031
7.02725
7.5449
8.12906
8.68879
9.11929
9.30015
9.1661
8.68387
8.12199
7.53542
6.98249
6.48726
6.05739
5.698
5.40936
5.19093
5.02957
4.91333
4.87189
4.82814
5.17663
5.4046
5.48303
5.42915
5.3007
5.18818
5.17259
5.25873
5.43694
5.67999
5.97254
6.32176
6.71755
7.10127
7.39675
7.51001
7.38061
7.04726
6.65829
6.26344
5.89694
5.57613
5.30758
5.09601
4.93824
4.83037
4.74932
4.688
4.67535
4.94722
5.28056
5.4637
5.47733
5.37119
5.20405
5.05436
4.99184
5.02638
5.13058
5.28762
5.48427
5.73052
6.02032
6.31127
6.53828
6.61507
6.49921
6.25081
5.96876
5.69203
5.44244
5.23035
5.06138
4.9449
4.87088
4.83268
4.81788
4.80086
4.8122
5.33812
5.6585
5.78184
5.73784
5.57983
5.36682
5.17774
5.07435
5.06128
5.1056
5.19777
5.32575
5.50118
5.72569
5.96625
6.15718
6.21366
6.10869
5.91137
5.70219
5.50876
5.3453
5.2089
5.1185
5.07135
5.06527
5.08767
5.12018
5.14329
5.17881
5.92943
6.23729
6.30672
6.2144
6.00573
5.74632
5.51398
5.3682
5.31208
5.30274
5.33703
5.41159
5.53648
5.72306
5.94083
6.11284
6.15671
6.0549
5.8857
5.71986
5.59651
5.50451
5.44276
5.4182
5.42845
5.47556
5.54781
5.6228
5.68104
5.74065
6.68989
6.98408
7.00927
6.87669
6.62266
6.31869
6.04317
5.85883
5.75887
5.6983
5.67921
5.70797
5.79595
5.961
6.17728
6.34285
6.37496
6.26455
6.10656
5.97787
5.90911
5.88359
5.89033
5.92739
5.98763
6.08007
6.19486
6.30589
6.3935
6.47413
7.58519
7.86324
7.85672
7.69239
7.40195
7.05918
6.7458
6.52733
6.38455
6.2738
6.20571
6.19499
6.25758
6.41752
6.64761
6.81694
6.83385
6.70064
6.53855
6.43461
6.41437
6.45052
6.52221
6.61924
6.72587
6.85466
7.00463
7.1438
7.25329
7.34982
8.57343
8.83321
8.8063
8.62011
8.30531
7.93418
7.59468
7.35035
7.16938
7.01204
6.90077
6.85859
6.9079
7.07867
7.33775
7.51669
7.5114
7.33925
7.15725
7.06468
7.08217
7.17403
7.30743
7.46106
7.60955
7.76554
7.94001
8.09847
8.22163
8.32795
9.60681
9.84712
9.8078
9.61115
9.286
8.90334
8.55401
8.29664
8.08679
7.89149
7.74648
7.68453
7.73498
7.93307
8.23532
8.42557
8.38834
8.16006
7.94097
7.84257
7.88381
8.02067
8.20774
8.4102
8.59269
8.76541
8.9517
9.12039
9.24982
9.36049
10.6342
10.8541
10.8091
10.6135
10.2936
9.92066
9.58233
9.32853
9.10453
8.88562
8.72189
8.65461
8.72454
8.96634
9.32356
9.52183
9.44229
9.1419
8.86791
8.7429
8.79001
8.95445
9.17969
9.41665
9.62051
9.79788
9.98384
10.153
10.2835
10.3949
11.604
11.8027
11.7588
11.5761
11.2799
10.9403
10.6366
10.4054
10.1866
9.96428
9.80213
9.74597
9.85737
10.1574
10.5768
10.7748
10.6435
10.259
9.91491
9.74043
9.77185
9.93956
10.1793
10.4285
10.6362
10.8045
10.9778
11.1378
11.267
11.3776
12.467
12.6444
12.6095
12.4542
12.2027
11.9204
11.6758
11.4868
11.2957
11.0952
10.9595
10.9333
11.1078
11.4746
11.9577
12.1429
11.9525
11.4794
11.0555
10.8104
10.8018
10.9437
11.1673
11.3992
11.5881
11.7323
11.8799
12.0227
12.1479
12.2577
13.1805
13.3374
13.3225
13.2118
13.0285
12.8261
12.6635
12.5354
12.3964
12.2449
12.1589
12.1858
12.4411
12.8759
13.4167
13.5739
13.3209
12.7633
12.2586
11.9283
11.8535
11.9397
12.1133
12.2938
12.4379
12.5414
12.648
12.7651
12.8816
12.9913
13.7138
13.8525
13.876
13.8289
13.7362
13.6322
13.568
13.5185
13.4554
13.3812
13.3621
13.468
13.8137
14.3097
14.8949
15.0082
14.6938
14.0643
13.4879
13.0665
12.9029
12.9057
12.9969
13.0944
13.1678
13.211
13.2577
13.3386
13.4395
13.5471
14.0572
14.1868
14.2627
14.3051
14.3169
14.3233
14.3668
14.4103
14.4428
14.4637
14.5343
14.7359
15.1739
15.7178
16.329
16.3848
16.0157
15.3331
14.7014
14.1928
13.9292
13.8225
13.8057
13.7945
13.7747
13.7403
13.711
13.7388
13.8155
13.9132
14.2315
14.3638
14.5067
14.6497
14.7715
14.8937
15.0429
15.1885
15.3332
15.4563
15.6364
15.9395
16.4632
17.0385
17.655
17.6459
17.2349
16.5226
15.8558
15.2721
14.9075
14.6787
14.5351
14.3987
14.2696
14.1451
14.034
13.9901
14.028
14.1087
14.2799
14.4348
14.647
14.8834
15.1097
15.3407
15.5853
15.8347
16.093
16.3259
16.6219
17.0238
17.6198
18.2097
18.8124
18.7392
18.3074
17.5903
16.9064
16.2637
15.8046
15.4521
15.1765
14.9083
14.6631
14.4485
14.2662
14.1475
14.1276
14.1788
14.2589
14.4246
14.7057
15.0293
15.3423
15.6633
15.9854
16.3278
16.691
17.0343
17.4413
17.9318
18.5811
19.1695
19.7491
19.6295
19.1971
18.5004
17.812
17.1274
16.5847
16.1164
15.7152
15.3209
14.9651
14.6673
14.4238
14.2467
14.1723
14.1981
14.2119
14.3894
14.7046
15.0858
15.4753
15.8533
16.2309
16.6438
17.0947
17.5419
18.0454
18.6078
19.2891
19.8626
20.4234
20.2807
19.8754
19.2232
18.5341
17.827
17.2124
16.6422
16.131
15.6274
15.1785
14.8124
14.52
14.2972
14.1828
14.1842
14.1428
14.3312
14.668
15.0645
15.4682
15.8608
16.2834
16.7614
17.2752
17.8095
18.3884
19
19.6914
20.2477
20.8061
20.6783
20.3275
19.7325
19.0533
18.3317
17.6558
16.9987
16.3977
15.8151
15.2865
14.8548
14.5267
14.2903
14.162
14.1427
14.0266
14.2254
14.5635
14.9552
15.3479
15.7345
16.1611
16.6509
17.1939
17.7737
18.4124
19.0628
19.7546
20.3005
20.8815
20.8174
20.5485
20.0207
19.3596
18.6165
17.8935
17.1634
16.4738
15.8166
15.2472
14.7962
14.4598
14.219
14.0789
14.0461
13.804
14.0001
14.3157
14.6715
15.0254
15.3918
15.8096
16.299
16.8591
17.4656
18.1198
18.7752
19.4585
20.0104
20.6467
20.7032
20.5386
20.0888
19.4504
18.6662
17.8725
17.0898
16.3619
15.6834
15.09
14.6165
14.2647
14.0166
13.8683
13.8343
13.405
13.5779
13.851
14.1513
14.4641
14.8013
15.1962
15.669
16.2215
16.8276
17.4754
18.1265
18.8002
19.3816
20.1119
20.3496
20.3125
19.9457
19.3277
18.5233
17.6798
16.8492
16.0775
15.3735
14.7538
14.2571
13.8868
13.6294
13.477
13.4361
12.7759
12.9084
13.1193
13.365
13.638
13.9426
14.3066
14.7505
15.2751
15.8572
16.4829
17.1227
17.7972
18.4366
19.3018
19.7763
19.8882
19.6095
19.0059
18.185
17.2794
16.4044
15.5976
14.864
14.2241
13.6967
13.2981
13.0217
12.8578
12.8028
11.8877
11.9668
12.1166
12.3171
12.5511
12.8213
13.1512
13.5574
14.0405
14.5832
15.1763
15.8017
16.4867
17.2194
18.2576
19.0142
19.2953
19.1038
18.5097
17.6683
16.7015
15.7841
14.9425
14.1798
13.5145
12.9495
12.51
12.1976
12.0048
11.9211
10.7876
10.8087
10.9067
11.0608
11.2556
11.4916
11.7851
12.1473
12.5794
13.0724
13.6271
14.2373
14.9423
15.8009
17.0384
18.1069
18.563
18.4595
17.8766
17.0035
15.9872
15.0298
14.1528
13.3587
12.6618
12.064
11.5762
11.2133
10.9746
10.8502
9.58226
9.5438
9.60053
9.71292
9.86927
10.0686
10.3195
10.6296
11.0018
11.4389
11.9497
12.5433
13.2765
14.2781
15.7209
17.1043
17.728
17.717
17.1491
16.2381
15.1897
14.194
13.2831
12.4614
11.7353
11.1058
10.5787
10.1605
9.8639
9.68738
8.42647
8.34305
8.35881
8.42722
8.54045
8.69571
8.89671
9.15006
9.46106
9.8353
10.2924
10.864
11.6289
12.7653
14.392
16.0639
16.8336
16.9248
16.3763
15.4335
14.3651
13.3352
12.396
11.5545
10.812
10.1651
9.61389
9.15642
8.80681
8.57132
15.5908
17.0677
17.7222
17.9923
17.9066
17.6164
17.2486
17.2005
17.5229
18.3846
19.5771
21.4812
23.6396
26.7862
29.7382
32.713
34.2299
35.3715
33.1496
30.5425
27.5519
24.8428
22.4021
20.288
18.4381
16.8855
15.7074
14.8475
14.2361
13.6886
6.98808
7.54709
7.90413
8.09055
8.09759
7.984
7.82051
7.73694
7.78734
8.01225
8.39085
8.96323
9.69325
10.6721
11.6869
12.6536
13.2143
13.3524
12.5551
11.6562
10.7269
9.90227
9.18786
8.57078
8.03628
7.58099
7.2184
6.93563
6.73454
6.62986
5.56829
5.91526
6.15851
6.27014
6.22275
6.07402
5.8957
5.7753
5.74772
5.82622
6.00656
6.29833
6.71306
7.28006
7.9194
8.56059
8.93724
8.8856
8.34262
7.76095
7.22209
6.7755
6.41582
6.12745
5.89778
5.71819
5.58016
5.47274
5.38669
5.3661
5.12895
5.39812
5.57386
5.6225