/*--------------------------------*- C++ -*----------------------------------*\
| =========                 |                                                 |
| \\      /  F ield         | OpenFOAM: The Open Source CFD Toolbox           |
|  \\    /   O peration     | Version:  5.0                                   |
|   \\  /    A nd           | Web:      www.OpenFOAM.org                      |
|    \\/     M anipulation  |                                                 |
\*---------------------------------------------------------------------------*/
FoamFile
{
    version     2.0;
    format      ascii;
    class       volScalarField;
    location    "150/air";
    object      nut;
}
// * * * * * * * * * * * * * * * * * * * * * * * * * * * * * * * * * * * * * //

dimensions      [0 2 -1 0 0 0 0];

internalField   nonuniform List<scalar> 
243000
(
0.00011793
0.000118264
0.000116688
0.000113578
0.000109222
0.000104174
9.91169e-05
9.50538e-05
9.26672e-05
9.38226e-05
9.8287e-05
0.0001035
0.000108501
0.000113437
0.000117693
0.000121453
0.000123689
0.00012508
0.000122732
0.000120307
0.000117542
0.000114665
0.00011176
0.000109086
0.00010702
0.000105968
0.000106271
0.000107719
0.000110695
0.000114525
0.000577293
0.000590782
0.000598985
0.000599431
0.00059366
0.000583633
0.000573042
0.000568024
0.000573245
0.000598126
0.000633504
0.000671805
0.000707756
0.000743374
0.000772727
0.000796348
0.000808789
0.000812877
0.000790297
0.00076389
0.000732642
0.000699997
0.00066653
0.000634791
0.000606342
0.000583299
0.000566575
0.000554846
0.000549301
0.000548919
0.000644323
0.000660178
0.000668467
0.000668213
0.000661496
0.000650761
0.0006401
0.000636215
0.00064461
0.000673674
0.000709733
0.000748566
0.000785254
0.000821703
0.000852204
0.000876415
0.000889197
0.000893199
0.000870542
0.000843109
0.000810528
0.000776236
0.000741129
0.00070783
0.000677986
0.000653714
0.000636011
0.000623854
0.000617832
0.00061745
0.000692934
0.000710498
0.000718606
0.0007179
0.000710673
0.000699725
0.0006894
0.000686755
0.000698403
0.000729303
0.000765338
0.000803682
0.000840092
0.000876214
0.000906882
0.000930937
0.00094345
0.000947099
0.00092525
0.000897811
0.000865031
0.000830196
0.000794491
0.000760547
0.000730074
0.000705213
0.000687026
0.0006748
0.000668578
0.000668024
0.000734263
0.000752719
0.000760151
0.000758861
0.000751087
0.000739976
0.000730074
0.000728714
0.000743396
0.000774969
0.000810525
0.000847927
0.000883597
0.000918998
0.000949478
0.000973253
0.000985417
0.000988825
0.000968196
0.000941317
0.000908843
0.000873985
0.000838143
0.000803959
0.000773201
0.000748059
0.000729688
0.000717567
0.000711329
0.000710607
0.000773837
0.000792554
0.000798734
0.000796436
0.000787849
0.000776425
0.000766861
0.000766816
0.000784027
0.000815555
0.000850341
0.000886636
0.000921373
0.00095596
0.000986161
0.00100978
0.00102175
0.0010252
0.00100604
0.000980062
0.00094814
0.000913502
0.000877754
0.000843551
0.000812708
0.000787505
0.000769158
0.000757302
0.000751208
0.000750421
0.000814833
0.000833301
0.000837727
0.000833878
0.000824054
0.000812023
0.000802637
0.000803878
0.000822865
0.000853924
0.000887698
0.000922799
0.000956504
0.000990303
0.00102028
0.00104395
0.00105599
0.00105984
0.00104238
0.00101759
0.000986438
0.000952227
0.000916732
0.000882648
0.000851862
0.000826743
0.000808592
0.000797174
0.000791399
0.000790679
0.000859242
0.000877045
0.00087924
0.000873266
0.000861723
0.00084871
0.00083927
0.000841645
0.00086155
0.00089181
0.000924346
0.000958161
0.000990774
0.00102381
0.00105365
0.00107759
0.00109
0.00109462
0.00107918
0.00105587
0.00102575
0.00099223
0.000957179
0.000923392
0.000892809
0.000867927
0.000850158
0.000839357
0.000834114
0.000833567
0.000908229
0.000925001
0.000924598
0.000915912
0.000902101
0.000887726
0.000877946
0.0008811
0.000901148
0.000930237
0.00096129
0.000993696
0.00102511
0.0010574
0.00108714
0.00111154
0.00112461
0.00113033
0.00111727
0.00109583
0.0010671
0.00103461
0.00100031
0.00096709
0.000936931
0.00091248
0.000895312
0.000885337
0.000880833
0.000880591
0.000962274
0.000977577
0.000974355
0.000962427
0.000945828
0.000929714
0.000919289
0.000922707
0.000942177
0.000969667
0.000998954
0.00102976
0.00105984
0.00109128
0.00112089
0.00114591
0.00115991
0.001167
0.00115665
0.00113757
0.00111066
0.00107969
0.00104658
0.00101432
0.000984909
0.000961176
0.000944871
0.000935938
0.000932393
0.000932656
0.0010211
0.00103443
0.00102821
0.00101271
0.000992947
0.000974752
0.000963366
0.000966442
0.000984625
0.00101007
0.00103725
0.00106622
0.00109474
0.00112519
0.00115456
0.00118027
0.0011954
0.00120412
0.00119675
0.00118047
0.00115593
0.00112703
0.0010957
0.00106491
0.00103672
0.00101409
0.000998947
0.000991285
0.000988921
0.000989896
0.00108361
0.00109444
0.00108513
0.00106597
0.00104286
0.00102234
0.00100969
0.0010118
0.001028
0.00105095
0.00107567
0.00110249
0.00112918
0.00115843
0.00118739
0.0012138
0.00123019
0.00124082
0.00123655
0.00122343
0.00120182
0.0011756
0.0011467
0.00111804
0.00109163
0.00107057
0.00105692
0.00105074
0.00104974
0.00105156
0.00114799
0.00115587
0.00114349
0.00112077
0.00109438
0.00107143
0.00105728
0.00105779
0.00107139
0.00109138
0.00111327
0.00113763
0.0011622
0.00119003
0.00121834
0.00124539
0.00126312
0.00127592
0.00127484
0.00126508
0.00124683
0.00122389
0.00119811
0.00117225
0.00114828
0.00112928
0.00111746
0.00111294
0.00111336
0.00111608
0.00121198
0.00121656
0.00120133
0.0011754
0.00114596
0.00112062
0.00110474
0.00110302
0.00111349
0.0011301
0.00114882
0.00117042
0.00119261
0.00121881
0.00124623
0.00127383
0.00129294
0.00130791
0.0013101
0.00130388
0.00128926
0.00127007
0.00124802
0.00122567
0.00120479
0.00118837
0.00117863
0.00117586
0.00117767
0.00118126
0.00127329
0.00127447
0.00125674
0.00122805
0.00119591
0.00116824
0.00115031
0.00114589
0.00115271
0.00116558
0.0011808
0.00119937
0.00121908
0.0012435
0.00126985
0.00129787
0.00131836
0.00133544
0.00134065
0.00133811
0.00132735
0.00131223
0.00129437
0.00127611
0.00125897
0.00124564
0.00123828
0.00123727
0.00124034
0.0012447
0.00132981
0.00132785
0.00130782
0.00127669
0.00124221
0.00121234
0.00119211
0.00118456
0.00118727
0.00119606
0.00120759
0.00122301
0.00124027
0.00126283
0.00128804
0.00131635
0.00133819
0.00135725
0.00136525
0.00136631
0.00135947
0.0013486
0.00133518
0.00132139
0.0013085
0.00129878
0.00129417
0.00129497
0.00129916
0.00130416
0.00137975
0.00137475
0.0013525
0.00131928
0.00128284
0.00125095
0.00122824
0.00121714
0.0012154
0.00121988
0.00122764
0.00123997
0.00125492
0.00127565
0.00129974
0.00132824
0.00135128
0.00137227
0.00138278
0.00138713
0.00138414
0.00137749
0.00136866
0.00135955
0.00135119
0.00134548
0.00134403
0.00134678
0.00135214
0.00135763
0.00142111
0.00141315
0.0013889
0.001354
0.00131597
0.00128221
0.00125682
0.00124182
0.00123552
0.00123561
0.00123969
0.00124917
0.00126201
0.00128103
0.00130407
0.00133268
0.00135675
0.0013794
0.00139227
0.00139949
0.0014001
0.00139751
0.0013932
0.00138881
0.00138512
0.00138366
0.00138552
0.00139044
0.00139709
0.00140299
0.00145176
0.00144122
0.00141536
0.00137911
0.00133979
0.00130439
0.00127617
0.00125725
0.00124658
0.00124268
0.00124344
0.00125041
0.00126125
0.0012789
0.00130089
0.00132933
0.00135398
0.00137816
0.00139293
0.0014027
0.00140637
0.00140747
0.00140743
0.00140765
0.00140866
0.00141145
0.00141666
0.00142379
0.00143164
0.00143782
0.0014702
0.00145746
0.0014301
0.00139298
0.00135271
0.00131599
0.00128545
0.00126538
0.00125257
0.00124637
0.00124527
0.00125037
0.00125983
0.00127566
0.00129586
0.00132181
0.00134465
0.00136834
0.00138454
0.0013962
0.00140218
0.00140636
0.0014103
0.00141502
0.00142033
0.00142721
0.00143583
0.00144517
0.00145409
0.00146042
0.00147533
0.00146119
0.00143331
0.00139588
0.0013564
0.00132174
0.00129184
0.00127004
0.00125533
0.00124734
0.00124463
0.00124838
0.0012567
0.00127109
0.00128986
0.00131371
0.00133507
0.00135716
0.00137235
0.00138331
0.00138943
0.00139436
0.0014014
0.00140974
0.00141915
0.0014297
0.00144145
0.00145305
0.00146298
0.0014693
0.00146546
0.00145019
0.00142418
0.00139227
0.00135667
0.00132373
0.00129435
0.00127136
0.00125491
0.00124517
0.0012414
0.00124427
0.00125174
0.00126504
0.00128264
0.00130472
0.00132484
0.00134534
0.00135955
0.00136975
0.00137585
0.0013815
0.00138886
0.00139783
0.00140805
0.00141914
0.00143242
0.00144596
0.00145682
0.0014629
0.00144364
0.00143223
0.00141088
0.00138388
0.00135224
0.00132123
0.00129254
0.00126871
0.00125088
0.00124001
0.00123565
0.00123803
0.00124491
0.0012574
0.00127403
0.0012946
0.00131362
0.00133257
0.00134576
0.00135514
0.00136105
0.00136692
0.00137418
0.00138328
0.00139385
0.00140524
0.00141837
0.00143054
0.00143945
0.00144342
0.00141779
0.00140973
0.00139295
0.00137025
0.00134231
0.00131348
0.00128578
0.00126197
0.00124362
0.00123209
0.00122759
0.00122975
0.00123624
0.00124808
0.00126386
0.00128311
0.00130109
0.00131857
0.00133069
0.00133918
0.00134473
0.0013504
0.0013572
0.00136588
0.00137618
0.00138744
0.00139989
0.00141051
0.00141742
0.00141941
0.00138699
0.00138211
0.00136993
0.0013515
0.00132729
0.00130088
0.00127471
0.00125159
0.00123338
0.00122178
0.0012174
0.00121947
0.00122567
0.00123694
0.00125195
0.00127003
0.00128699
0.00130306
0.00131403
0.00132158
0.00132659
0.00133175
0.00133788
0.0013458
0.00135527
0.00136567
0.0013767
0.00138536
0.00138999
0.00139001
0.00135104
0.00134921
0.00134164
0.00132764
0.00130732
0.00128369
0.00125957
0.00123785
0.00122042
0.00120921
0.00120508
0.00120709
0.00121314
0.00122398
0.00123828
0.00125525
0.00127114
0.00128579
0.00129552
0.00130202
0.00130628
0.00131068
0.00131596
0.00132286
0.00133116
0.00134021
0.00134919
0.00135533
0.00135714
0.00135512
0.00131087
0.00131171
0.00130858
0.00129894
0.00128273
0.00126222
0.00124058
0.00122079
0.00120478
0.00119447
0.00119094
0.00119318
0.00119927
0.00120988
0.00122359
0.00123958
0.00125437
0.00126745
0.00127575
0.00128086
0.00128393
0.00128711
0.00129115
0.00129668
0.00130346
0.00131082
0.00131751
0.00132093
0.00131979
0.0013157
0.00126562
0.00126903
0.00127018
0.001265
0.00125325
0.00123663
0.00121834
0.00120167
0.00118849
0.0011804
0.00117842
0.00118159
0.00118839
0.00119918
0.00121276
0.00122816
0.001242
0.00125333
0.0012598
0.00126274
0.00126349
0.00126417
0.00126563
0.00126855
0.00127271
0.0012774
0.00128119
0.00128139
0.00127723
0.00127088
0.00122958
0.00123534
0.00123964
0.00123847
0.00123206
0.00122144
0.00120927
0.00119867
0.001191
0.00118726
0.00118804
0.00119274
0.00120033
0.00121118
0.0012244
0.00123895
0.00125187
0.00126177
0.00126666
0.00126721
0.00126521
0.00126217
0.00125922
0.00125722
0.00125628
0.00125599
0.00125509
0.00125136
0.00124372
0.00123454
0.00130891
0.00130947
0.0013092
0.00130684
0.00130245
0.00129621
0.00128939
0.00128318
0.00127812
0.0012746
0.00127287
0.00127318
0.0012757
0.00128088
0.0012887
0.00129895
0.00130876
0.00131723
0.00132365
0.00132735
0.00132849
0.00132842
0.00132771
0.00132676
0.00132577
0.00132479
0.00132365
0.00132138
0.00131727
0.00131171
0.000166119
0.000166039
0.000162629
0.000156985
0.000149862
0.000142332
0.000135592
0.000131409
0.000130496
0.000132822
0.000136309
0.000141017
0.00014599
0.000151575
0.000156678
0.000161267
0.000164258
0.000166176
0.000163785
0.000161213
0.000157954
0.000154631
0.000151377
0.000148595
0.000146672
0.000146002
0.000147024
0.00014987
0.00015477
0.000161035
0.00113213
0.00116368
0.00112667
0.00105149
0.000964496
0.000880186
0.000818091
0.00079174
0.000797391
0.000823018
0.000853693
0.000892514
0.000933702
0.00098856
0.00104075
0.00108407
0.00111553
0.00113648
0.00111088
0.00108024
0.00103444
0.000988635
0.000946581
0.000914029
0.000889842
0.000879706
0.000885824
0.000909663
0.000949799
0.00100182
0.00211087
0.00220827
0.00215636
0.00203908
0.00189401
0.00175199
0.00164779
0.00161223
0.0016372
0.00169576
0.00176345
0.00184723
0.00193433
0.00204473
0.00215193
0.00223187
0.0022863
0.00232489
0.00227663
0.0022121
0.00211787
0.00201964
0.00192642
0.00185008
0.00179283
0.00176197
0.00176147
0.00179654
0.00186149
0.00194582
0.00296466
0.00308505
0.00301443
0.00287763
0.00271751
0.00255867
0.00244396
0.00241593
0.00246281
0.0025488
0.00265111
0.00277314
0.00289639
0.00304573
0.00319286
0.00329579
0.00336101
0.00340803
0.00334607
0.00325625
0.00312497
0.00298406
0.00284884
0.00273495
0.00264755
0.0025953
0.00258242
0.00262033
0.00269292
0.00277961
0.00363259
0.00374746
0.00367894
0.0035629
0.00341366
0.00326768
0.00316908
0.00315864
0.00322989
0.00334307
0.0034631
0.00360026
0.00374378
0.00391142
0.00407688
0.00419088
0.00425899
0.00430295
0.00423725
0.00413776
0.00399818
0.00384177
0.0036819
0.00353775
0.0034185
0.00333946
0.00331017
0.00333463
0.00339821
0.00347262
0.00418304
0.00428272
0.00422143
0.00412628
0.00399953
0.00388026
0.00380724
0.00381717
0.00390143
0.00402403
0.00415711
0.00430404
0.00445366
0.00462209
0.00478817
0.0049037
0.00497043
0.00500676
0.00494497
0.00484066
0.00469308
0.00452595
0.00435558
0.00420053
0.00407007
0.00397912
0.00393621
0.00394608
0.00399157
0.0040502
0.0046603
0.00474231
0.00468808
0.00460833
0.00450418
0.00441229
0.00436409
0.00439074
0.00448179
0.00460645
0.00474172
0.00488801
0.00503386
0.00519397
0.00535038
0.00546117
0.00552351
0.00555394
0.00549946
0.00539819
0.00525284
0.00508624
0.00491593
0.00475881
0.00462492
0.00452813
0.00447662
0.00447555
0.00450372
0.00454901
0.00509949
0.00516367
0.00511452
0.00504388
0.00495656
0.00488583
0.00485624
0.00489294
0.00498475
0.00510539
0.0052357
0.00537449
0.00551075
0.00565712
0.00580045
0.00590313
0.00596079
0.00598906
0.00594508
0.00585315
0.00571678
0.00555781
0.00539409
0.00524129
0.00510969
0.00501252
0.00495781
0.00495017
0.00496823
0.00500359
0.00552227
0.00556815
0.00552352
0.00545588
0.00537871
0.0053213
0.00530287
0.00534223
0.00542914
0.00554101
0.00566158
0.00578879
0.00591191
0.00604214
0.00617093
0.0062648
0.00631917
0.00634873
0.00631846
0.00624086
0.00611845
0.00597205
0.00581974
0.00567604
0.00555118
0.00545797
0.00540465
0.00539503
0.00540876
0.00543804
0.00593787
0.00596632
0.0059228
0.00585529
0.00578319
0.00573235
0.00571877
0.00575349
0.00583083
0.00592976
0.00603706
0.00614985
0.00625758
0.00637022
0.00648379
0.0065693
0.00662212
0.00665536
0.00664135
0.00658245
0.00647809
0.00634859
0.00621195
0.00608161
0.00596738
0.00588176
0.00583326
0.00582521
0.00583794
0.00586394
0.00634576
0.00635764
0.00631179
0.00624357
0.00617331
0.00612433
0.00611094
0.00613442
0.00619844
0.00628095
0.00637182
0.00646791
0.00655838
0.00665236
0.00675009
0.00682811
0.00688102
0.00692029
0.00692341
0.00688614
0.00680346
0.00669464
0.00657779
0.00646487
0.00636511
0.00629024
0.00624899
0.00624474
0.00625808
0.00628215
0.0067387
0.006734
0.00668485
0.00661531
0.00654503
0.00649478
0.0064765
0.00648784
0.00653318
0.0065964
0.00666831
0.00674562
0.00681728
0.00689164
0.00697297
0.00704441
0.00709881
0.00714686
0.00716601
0.00715166
0.00709346
0.00700848
0.006915
0.00682323
0.00674145
0.0066802
0.0066481
0.00664892
0.00666361
0.00668604
0.00710541
0.00708416
0.00703139
0.00696026
0.00688911
0.00683577
0.0068096
0.00680778
0.00683049
0.00687232
0.00692332
0.00698028
0.00703188
0.0070861
0.00715067
0.00721635
0.0072735
0.0073327
0.00736787
0.00737474
0.00734214
0.00728302
0.00721545
0.00714776
0.00708703
0.00704191
0.00702046
0.00702687
0.00704395
0.00706423
0.00743182
0.00739446
0.00733862
0.00726646
0.00719432
0.00713672
0.00710031
0.00708261
0.00708409
0.00710114
0.00712991
0.00716566
0.0071967
0.00723092
0.00727887
0.00733941
0.00740049
0.00747026
0.00752297
0.00754915
0.00754114
0.00750858
0.00746814
0.00742637
0.00738896
0.00736204
0.00735201
0.00736345
0.00738509
0.00740245
0.00770405
0.00765244
0.00759459
0.00752206
0.00744863
0.00738568
0.00733691
0.00730124
0.00728071
0.00727423
0.00727881
0.00729296
0.00730487
0.00732018
0.00735234
0.00740792
0.00747455
0.00755442
0.00762186
0.00766679
0.00768089
0.0076749
0.00766142
0.00764598
0.00763297
0.00762591
0.00762865
0.00764516
0.00767171
0.00768694
0.0079094
0.00784642
0.0077861
0.00771233
0.00763744
0.00756851
0.00750633
0.00745182
0.00740898
0.00737902
0.00736118
0.00735478
0.00734997
0.00734855
0.00736622
0.00741712
0.00749001
0.0075796
0.00765984
0.00772136
0.00775524
0.00777215
0.00778407
0.00779438
0.00780518
0.00781897
0.00783609
0.00785956
0.00789027
0.00790579
0.00803457
0.00796273
0.00789863
0.00782434
0.00774888
0.00767413
0.00759818
0.00752391
0.00745993
0.00740837
0.00737005
0.00734624
0.0073289
0.00731304
0.00731844
0.0073651
0.00744169
0.00754217
0.00763182
0.00770629
0.00775679
0.00779316
0.00782747
0.00786091
0.00789501
0.00792888
0.00795986
0.00799264
0.00802797
0.00804701
0.00806164
0.00799149
0.00792183
0.00784889
0.00777453
0.00769444
0.00760494
0.00751064
0.00742884
0.00735992
0.00730414
0.00726735
0.00724312
0.00721533
0.0072121
0.00725383
0.00733335
0.0074387
0.00753454
0.0076179
0.00768093
0.00773243
0.00778516
0.00783744
0.00789267
0.00794546
0.0079916
0.0080303
0.00807067
0.00809405
0.0079872
0.00791927
0.00784962
0.00778156
0.00771106
0.0076267
0.00752595
0.00741043
0.007311
0.00722445
0.00714918
0.00710373
0.00707929
0.00704385
0.00704255
0.00709199
0.00717558
0.00728183
0.00738211
0.00747023
0.0075384
0.00759618
0.00765577
0.0077194
0.00779435
0.0078655
0.00792344
0.00796737
0.00800543
0.00803151
0.00781463
0.00774563
0.00768242
0.0076242
0.00756289
0.00748644
0.00738674
0.00725279
0.00710178
0.00697131
0.00687575
0.00682795
0.00680513
0.0067691
0.00678006
0.00685274
0.00695531
0.00707372
0.0071752
0.00725862
0.0073227
0.00738295
0.00745248
0.00754313
0.00762574
0.00769553
0.00775955
0.00780517
0.00783555
0.00786209
0.00754414
0.00747608
0.00743239
0.00739238
0.00732832
0.00722099
0.00707412
0.00690763
0.00673997
0.00660282
0.0065061
0.00646514
0.00644386
0.00641672
0.00644742
0.00653755
0.00665104
0.00678361
0.00689363
0.00697907
0.00704032
0.0070981
0.00716354
0.00725259
0.0073483
0.00742997
0.0074977
0.00754589
0.00756629
0.00759203
0.00718357
0.00711788
0.00707518
0.00701029
0.0069252
0.0067944
0.0066267
0.00644901
0.00628669
0.00615614
0.00607194
0.00604636
0.00603296
0.0060318
0.00608623
0.00619278
0.00631316
0.00644864
0.0065544
0.00662439
0.00666726
0.00670486
0.00675856
0.00684159
0.00694787
0.00705368
0.007134
0.0071887
0.00721218
0.00723086
0.0066912
0.00660881
0.0065532
0.00648826
0.00639553
0.00625961
0.00609208
0.0059269
0.00578347
0.00567485
0.00561542
0.00561363
0.00562664
0.00565651
0.00573653
0.00585998
0.00598647
0.00612005
0.00621271
0.00626038
0.00627578
0.00627916
0.0062893
0.00633248
0.00641537
0.00651249
0.00660191
0.00667529
0.00672578
0.0067455
0.00602705
0.00596159
0.00591962
0.00587082
0.00578956
0.00566937
0.00552667
0.0053924
0.00528467
0.00521333
0.00519758
0.00522873
0.00526808
0.00532783
0.00543145
0.00557194
0.00570558
0.00583755
0.00591523
0.00594106
0.00592709
0.00589115
0.00584733
0.00582165
0.00583852
0.00589901
0.00596855
0.00602527
0.00606972
0.0060852
0.00529795
0.00526531
0.00524713
0.005223
0.00517412
0.00509374
0.00499694
0.00491137
0.00486096
0.00485244
0.00487843
0.00492976
0.00498983
0.0050727
0.0051967
0.00535309
0.00549385
0.00562633
0.00569332
0.00570256
0.00566593
0.00559949
0.005515
0.00543281
0.0053695
0.00533329
0.00532647
0.00533782
0.00535102
0.00535416
0.00464217
0.00463251
0.00463983
0.00464564
0.00464079
0.00461441
0.00458916
0.00458349
0.00459775
0.00462959
0.00467573
0.00473935
0.00481339
0.00491307
0.00504999
0.00521896
0.00536585
0.005501
0.0055635
0.00556398
0.00551473
0.00543048
0.00531975
0.00519724
0.00507553
0.0049619
0.00486225
0.00478986
0.00473405
0.00469435
0.00429377
0.00429086
0.00430881
0.00433046
0.00436295
0.00438875
0.00441537
0.00445074
0.00449338
0.00454108
0.00459658
0.00466544
0.00474775
0.00485758
0.00499962
0.00517777
0.00533121
0.0054695
0.00553395
0.00553447
0.00548284
0.00539271
0.00527
0.00512556
0.00497003
0.00481295
0.00466392
0.00453771
0.0044318
0.00434827
0.00422366
0.00422844
0.00425274
0.00428121
0.00432212
0.00436594
0.00440959
0.00445816
0.00450933
0.00456247
0.00462109
0.00469223
0.00478108
0.00490145
0.00505224
0.00524208
0.00540757
0.00555228
0.00562585
0.00563232
0.00558431
0.00549301
0.00536446
0.00520896
0.00503672
0.00485869
0.00468552
0.00452994
0.00439331
0.00428212
0.00440117
0.00440888
0.00443103
0.00445551
0.00449016
0.00453065
0.00457374
0.00462177
0.00467321
0.00472832
0.00479149
0.00486937
0.00497277
0.00511548
0.005296
0.00551445
0.00570243
0.00586216
0.00595119
0.00596652
0.00592158
0.00582411
0.00568546
0.00551727
0.00533004
0.00513537
0.00494486
0.00476689
0.00460393
0.00446666
0.00520442
0.00520634
0.00521127
0.00521526
0.005225
0.00524333
0.00526997
0.00530324
0.00534443
0.00539603
0.0054609
0.0055515
0.0056793
0.00586307
0.00609909
0.00637362
0.0066102
0.00680853
0.00692748
0.00696348
0.00692395
0.00682112
0.00667333
0.00649246
0.00628949
0.00607647
0.005865
0.00566056
0.00546386
0.00528261
0.000202486
0.000201241
0.000195648
0.000188025
0.000179253
0.000170742
0.000163417
0.000159214
0.000158321
0.000160003
0.000162786
0.00016723
0.000172215
0.000178281
0.00018379
0.000188688
0.000191876
0.000193842
0.000191348
0.000188781
0.000185342
0.000182024
0.000178779
0.000176317
0.000175063
0.000175172
0.000177095
0.000181086
0.000187052
0.000194603
0.00162483
0.00167786
0.00164191
0.00157082
0.00148271
0.00138284
0.00131093
0.00128876
0.00130601
0.00134589
0.00138746
0.00142193
0.0014587
0.00151028
0.0015636
0.00159985
0.00162271
0.00163453
0.00161034
0.00157696
0.00153112
0.00148715
0.00144788
0.00141776
0.00138407
0.00137226
0.00138332
0.00142039
0.00147481
0.00154056
0.00309087
0.00319896
0.00314191
0.00302303
0.00288776
0.00274696
0.00264952
0.00263244
0.00267932
0.00276316
0.00283626
0.00291286
0.00299436
0.00310317
0.00321446
0.00328275
0.0033244
0.00335316
0.0033049
0.00323533
0.00313678
0.00303603
0.00294037
0.00286282
0.00279415
0.00275659
0.00275668
0.00280507
0.0028835
0.00297524
0.00432292
0.00442324
0.00433097
0.0042082
0.00407604
0.00394332
0.00385738
0.0038589
0.00393046
0.00404202
0.00414443
0.00425989
0.00438084
0.00453431
0.0046915
0.00478353
0.00483775
0.00488036
0.00481492
0.00471686
0.0045759
0.00442699
0.00428067
0.00415494
0.0040588
0.00399464
0.00396929
0.0040075
0.00408421
0.00417062
0.00524649
0.00532937
0.00524996
0.00515327
0.00504237
0.00494056
0.00488673
0.00491518
0.00502086
0.00513441
0.00526045
0.00540631
0.00555683
0.00573768
0.00592233
0.00603011
0.0060904
0.00613773
0.00606163
0.00594367
0.00577214
0.00558806
0.00541624
0.00527235
0.00514011
0.00503955
0.0049903
0.00500174
0.0050541
0.0051173
0.00597384
0.00603951
0.00597822
0.00590631
0.00582385
0.00575964
0.00573793
0.00578856
0.00590231
0.00603773
0.00618696
0.00635169
0.00651843
0.00671223
0.00690146
0.00701609
0.00707799
0.00712088
0.00705413
0.00691578
0.006729
0.00652321
0.00632357
0.00614851
0.0059972
0.00588436
0.00581981
0.00580754
0.00583074
0.00586938
0.00658129
0.00663189
0.00658493
0.00653077
0.00647198
0.00643644
0.0064416
0.00650338
0.00662743
0.00677823
0.00694218
0.00711698
0.00729019
0.00748004
0.00766112
0.00777397
0.0078341
0.00787155
0.00780683
0.00767052
0.00747888
0.00726344
0.00705041
0.00685902
0.00669639
0.00657461
0.00649926
0.00647118
0.00647466
0.00649599
0.00712564
0.00716229
0.00712363
0.00707913
0.00703526
0.00701717
0.00703958
0.00710713
0.00723712
0.00739489
0.00756477
0.00774087
0.00791015
0.00808628
0.0082501
0.00835285
0.00840848
0.00844377
0.00838945
0.00826319
0.00807739
0.00786365
0.00764955
0.0074543
0.00728867
0.00716405
0.00708445
0.00704898
0.00704267
0.00705357
0.00764064
0.00766284
0.00762848
0.00758681
0.00755022
0.00754082
0.00757156
0.00764336
0.00776935
0.00792564
0.00809298
0.0082629
0.00841957
0.00857447
0.00871455
0.00880242
0.00885262
0.00889018
0.00885355
0.00874592
0.00857548
0.00837361
0.00816909
0.00798014
0.00781893
0.00769697
0.00761856
0.00758179
0.00757182
0.00757777
0.00814074
0.00814842
0.00811446
0.00807169
0.00803731
0.00803085
0.00806388
0.00813764
0.00825226
0.00839851
0.00855587
0.00871394
0.00885175
0.00898032
0.00909312
0.00916399
0.00920877
0.00925176
0.0092376
0.00915597
0.00900839
0.00882697
0.00864067
0.00846598
0.00831515
0.00820021
0.00812649
0.00809085
0.00808085
0.00808512
0.008627
0.00862035
0.00858362
0.00853812
0.00850314
0.00849633
0.00852769
0.00859816
0.00870184
0.00883045
0.00897045
0.00911304
0.00922876
0.00932878
0.00941302
0.00946661
0.00950642
0.00955707
0.00956602
0.00951473
0.00939493
0.00924031
0.00907848
0.00892373
0.00878793
0.00868307
0.00861557
0.00858211
0.00857352
0.008578
0.0090915
0.00907061
0.00902962
0.00898089
0.00894418
0.00893552
0.00896302
0.00902599
0.00911814
0.00922875
0.00934648
0.00946957
0.0095626
0.00963455
0.00969125
0.00972872
0.00976397
0.00982341
0.00985341
0.00983207
0.00974221
0.00961767
0.00948338
0.00935196
0.00923446
0.00914158
0.00908068
0.00905033
0.0090436
0.00904926
0.00952053
0.0094856
0.00944012
0.00938838
0.00935014
0.00933962
0.0093623
0.00941616
0.00949504
0.00958911
0.00968582
0.00978661
0.00985801
0.00990502
0.0099374
0.00996109
0.00999231
0.0100602
0.0101095
0.0101129
0.0100523
0.00995647
0.0098482
0.00973965
0.00964161
0.00956231
0.00950909
0.00948251
0.00947868
0.0094855
0.00989656
0.00984827
0.00979862
0.00974482
0.00970634
0.00969516
0.0097132
0.00975816
0.00982437
0.00990282
0.0099824
0.0100629
0.010115
0.0101421
0.0101563
0.0101696
0.0101976
0.0102731
0.010338
0.0103609
0.0103224
0.0102501
0.0101642
0.0100757
0.00999407
0.00992729
0.00988304
0.00986173
0.00986146
0.00986941
0.0101994
0.0101393
0.0100861
0.0100321
0.00999593
0.00998619
0.0100009
0.0100388
0.0100947
0.0101606
0.010227
0.0102931
0.0103303
0.0103446
0.0103488
0.010357
0.0103831
0.0104655
0.0105412
0.0105766
0.01055
0.0104922
0.0104214
0.0103473
0.0102782
0.0102216
0.0101838
0.0101682
0.0101719
0.0101811
0.010407
0.0103386
0.0102827
0.0102318
0.0102022
0.010196
0.0102097
0.0102438
0.0102935
0.0103516
0.0104105
0.0104697
0.0104991
0.0105093
0.010513
0.0105244
0.0105502
0.0106398
0.0107223
0.0107606
0.0107344
0.0106791
0.010613
0.0105445
0.0104805
0.0104292
0.010395
0.0103821
0.0103889
0.0103998
0.0104974
0.0104284
0.0103701
0.010328
0.0103085
0.010309
0.0103245
0.0103586
0.0104076
0.0104642
0.0105248
0.0105833
0.0106148
0.010631
0.0106444
0.0106682
0.0106999
0.0107977
0.010883
0.0109137
0.0108788
0.0108108
0.0107366
0.0106619
0.0105928
0.0105382
0.0105014
0.0104864
0.0104933
0.0105054
0.0104599
0.0103896
0.0103354
0.0103081
0.0103008
0.0103113
0.0103308
0.0103692
0.0104244
0.0104867
0.0105601
0.0106258
0.0106698
0.0107021
0.0107354
0.0107821
0.010827
0.010938
0.0110236
0.0110402
0.0109887
0.010892
0.0107954
0.010701
0.010614
0.010545
0.0104961
0.0104708
0.010471
0.010482
0.0103035
0.0102284
0.010187
0.0101678
0.0101676
0.0101913
0.010216
0.010262
0.0103356
0.0104199
0.0105157
0.0106006
0.0106672
0.0107241
0.0107832
0.0108572
0.0109232
0.0110513
0.0111377
0.0111367
0.0110577
0.0109284
0.0107889
0.0106601
0.010543
0.0104493
0.0103812
0.0103365
0.01032
0.010325
0.0100031
0.00992241
0.00988688
0.00988236
0.00990178
0.00994468
0.00999586
0.0100642
0.010156
0.0102799
0.0104037
0.0105186
0.0106164
0.0107049
0.0107977
0.0109049
0.0109942
0.0111347
0.0112169
0.0111955
0.0110821
0.0109116
0.0107258
0.0105382
0.0103864
0.0102552
0.01015
0.0100772
0.0100426
0.010032
0.00957749
0.00949006
0.00945798
0.00946125
0.00951093
0.00958686
0.0096769
0.00978322
0.00991703
0.0100762
0.010241
0.0103926
0.0105268
0.0106536
0.0107887
0.0109347
0.011053
0.011205
0.0112823
0.0112345
0.0110783
0.0108542
0.0106175
0.010348
0.0101407
0.00994929
0.00980249
0.0097046
0.00964964
0.00961869
0.00903577
0.00895615
0.00893869
0.00896298
0.00903594
0.00915121
0.00929476
0.00945673
0.00963473
0.00983068
0.0100343
0.0102388
0.0104157
0.010586
0.0107686
0.0109583
0.0111142
0.011279
0.0113523
0.0112763
0.0110786
0.0108022
0.0104786
0.0101369
0.00984436
0.00959273
0.00938479
0.00923772
0.0091509
0.00909792
0.00845327
0.00839348
0.00839718
0.00845225
0.00855706
0.00871613
0.00890299
0.00911116
0.00933961
0.00958496
0.0098346
0.0100709
0.0102951
0.010519
0.0107542
0.0109935
0.0111922
0.0113764
0.0114471
0.0113506
0.0111167
0.0107877
0.0103754
0.00995289
0.00956634
0.00923767
0.00896079
0.00875377
0.00862007
0.00853396
0.00791639
0.00787552
0.0079044
0.00799039
0.00812698
0.00832341
0.00855401
0.00880578
0.00907779
0.00937363
0.00966832
0.00994255
0.0102048
0.0104757
0.0107678
0.0110632
0.0113062
0.0115223
0.0115955
0.0114942
0.0112447
0.010854
0.0103592
0.0098522
0.00936761
0.00895529
0.00860284
0.00832809
0.00813704
0.00801079
0.007507
0.00748341
0.00753438
0.00764486
0.00780899
0.00803627
0.00830249
0.00859275
0.00890646
0.00923889
0.00956472
0.0098678
0.0101655
0.0104852
0.0108385
0.0111954
0.0114849
0.0117395
0.0118271
0.0117248
0.0114433
0.0110073
0.0104664
0.00989497
0.00933262
0.0088234
0.00838961
0.00804172
0.00778535
0.00761335
0.00731739
0.00730539
0.00737019
0.00749578
0.00767941
0.00792954
0.00822338
0.00854326
0.00888491
0.00923544
0.00957495
0.00989344
0.010218
0.0105839
0.0110025
0.0114263
0.0117673
0.0120641
0.0121779
0.0120738
0.0117827
0.0113333
0.0107642
0.0101456
0.00952736
0.00893812
0.00842002
0.00799162
0.0076626
0.00743642
0.00747162
0.00746445
0.00753289
0.00766125
0.00785139
0.00811079
0.00841369
0.00873936
0.0090822
0.00942587
0.00975718
0.0100757
0.0104172
0.0108257
0.0113099
0.0118049
0.0122037
0.0125449
0.0127046
0.0126312
0.0123444
0.0118992
0.0113224
0.0106796
0.0100226
0.0093865
0.00880044
0.00829963
0.00789398
0.00760385
0.00812329
0.0081156
0.00817816
0.00829517
0.00847168
0.00871335
0.00899278
0.00928985
0.00959707
0.00990183
0.0102009
0.0105003
0.0108448
0.0112897
0.0118336
0.012399
0.0128598
0.0132459
0.0134718
0.0134486
0.013203
0.0127861
0.0122305
0.0115983
0.0109364
0.0102824
0.0096667
0.00911294
0.00863748
0.00827287
0.00953989
0.00952343
0.00956311
0.00964373
0.00977274
0.00995098
0.0101553
0.0103709
0.0105904
0.0108119
0.0110417
0.0112934
0.0116198
0.0120853
0.0126694
0.0132943
0.0138177
0.0142514
0.014558
0.0146113
0.0144472
0.0140927
0.013615
0.0130662
0.012461
0.0118334
0.0112178
0.0106433
0.0101345
0.00971377
0.0122262
0.0121671
0.0121232
0.0120998
0.0121066