/*--------------------------------*- C++ -*----------------------------------*\
| =========                 |                                                 |
| \\      /  F ield         | OpenFOAM: The Open Source CFD Toolbox           |
|  \\    /   O peration     | Version:  5.0                                   |
|   \\  /    A nd           | Web:      www.OpenFOAM.org                      |
|    \\/     M anipulation  |                                                 |
\*---------------------------------------------------------------------------*/
FoamFile
{
    version     2.0;
    format      ascii;
    class       volScalarField;
    location    "800/air";
    object      alphat;
}
// * * * * * * * * * * * * * * * * * * * * * * * * * * * * * * * * * * * * * //

dimensions      [1 -1 -1 0 0 0 0];

internalField   nonuniform List<scalar> 
243000
(
0.000181051
0.000186894
0.000186034
0.000181804
0.000175458
0.000167857
0.000159664
0.000151414
0.00014347
0.000136151
0.000129658
0.000124243
0.000120136
0.00011751
0.000115846
0.00011446
0.000112952
0.00011133
0.000109715
0.000108207
0.000106876
0.000105922
0.000105241
0.000104001
0.000101177
9.51378e-05
0.000420538
0.00010358
0.000118474
0.000118963
0.000791343
0.000859558
0.000892726
0.000905943
0.000906768
0.000898793
0.000884505
0.000866043
0.000845089
0.000823226
0.000801539
0.000781723
0.000764851
0.000750472
0.000735289
0.000716916
0.000695514
0.00067304
0.000650736
0.000629169
0.000608649
0.000590201
0.000573822
0.00055537
0.000531198
0.000491861
0.000448879
0.000481234
0.000548107
0.000555581
0.000858773
0.000936426
0.000978858
0.000996129
0.000999174
0.000992078
0.000977934
0.000959138
0.000937506
0.000914746
0.000891975
0.000870996
0.000852653
0.000836087
0.000817471
0.000794411
0.000767596
0.000739855
0.000712885
0.000687407
0.000663618
0.000642071
0.000622372
0.000601839
0.000577024
0.000540321
0.000494561
0.00050247
0.000586573
0.000614662
0.000895169
0.000982964
0.00103246
0.00105456
0.00106091
0.00105596
0.00104338
0.00102571
0.00100489
0.000982701
0.000960325
0.000939601
0.000921167
0.000903911
0.000883613
0.000857838
0.00082755
0.000796138
0.000765638
0.000736987
0.000710358
0.000686027
0.000663215
0.000639961
0.000613526
0.000577763
0.000531477
0.000518409
0.000609924
0.000656862
0.000915375
0.00100878
0.00106608
0.00109326
0.00110326
0.00110105
0.00109071
0.0010749
0.00105564
0.00103479
0.00101359
0.000993861
0.000976024
0.000958825
0.000937737
0.000910367
0.000877916
0.000844026
0.000811001
0.000779946
0.000751054
0.000724434
0.000699065
0.00067317
0.000644954
0.000609222
0.00056308
0.000535856
0.000623235
0.000687986
0.00092507
0.00102068
0.00108535
0.00111846
0.00113221
0.00113306
0.00112528
0.00111173
0.00109445
0.00107538
0.00105581
0.0010375
0.00102067
0.00100395
0.000982598
0.000954324
0.000920613
0.000885111
0.000850335
0.000817515
0.000786892
0.000758461
0.000731077
0.000702877
0.000673017
0.000636894
0.000590989
0.00055523
0.000629673
0.000711969
0.000927564
0.00102371
0.00109314
0.00113354
0.00115124
0.00115542
0.00115038
0.0011393
0.00112425
0.00110723
0.00108956
0.00107294
0.00105737
0.0010414
0.00102013
0.00099144
0.000957101
0.000920619
0.000884688
0.000850618
0.000818704
0.000788873
0.000759929
0.000729819
0.000698565
0.000661915
0.000616235
0.000574592
0.000633228
0.000729911
0.000925005
0.00102089
0.00109344
0.00113972
0.00116259
0.00117028
0.00116814
0.00115966
0.001147
0.0011322
0.0011166
0.00110183
0.00108771
0.00107267
0.00105172
0.00102299
0.000988458
0.0009515
0.000914867
0.00087996
0.000847119
0.000816236
0.000786098
0.000754461
0.000722079
0.000684931
0.000639456
0.000593495
0.000634906
0.000742504
0.000918806
0.00101408
0.00108893
0.00113902
0.00116757
0.00117915
0.00118003
0.00117426
0.00116408
0.00115161
0.00113819
0.00112539
0.00111283
0.00109883
0.00107837
0.0010499
0.0010155
0.000978479
0.000941508
0.000906094
0.000872628
0.000840984
0.000809956
0.000777138
0.000743884
0.000706346
0.000661183
0.000611957
0.000634991
0.000750399
0.000909636
0.00100404
0.00108063
0.00113398
0.00116688
0.00118289
0.00118711
0.00118411
0.00117651
0.00116644
0.00115529
0.00114453
0.00113358
0.00112068
0.00110085
0.00107289
0.00103888
0.00100211
0.000965102
0.000929456
0.000895617
0.000863468
0.000831799
0.000798111
0.000764224
0.000726432
0.000681458
0.000629928
0.000634397
0.000754308
0.000900281
0.000991373
0.00106918
0.00112552
0.00116217
0.00118213
0.00119007
0.00119001
0.00118505
0.00117745
0.00116861
0.00115992
0.00115061
0.00113884
0.00111976
0.00109249
0.00105909
0.00102282
0.000986055
0.000950401
0.000916413
0.000883968
0.000851878
0.000817596
0.000783296
0.000745391
0.000700564
0.000647944
0.000634661
0.000755155
0.000889594
0.000978136
0.00105512
0.00111413
0.00115419
0.00117812
0.00118942
0.00119259
0.00119033
0.00118524
0.00117873
0.0011721
0.00116442
0.0011538
0.00113556
0.00110915
0.00107655
0.00104096
0.00100468
0.000969228
0.000935279
0.000902725
0.000870406
0.000835774
0.000801253
0.000763406
0.000718799
0.000666349
0.000636886
0.000753233
0.000877098
0.000964625
0.00103957
0.00110025
0.00114357
0.00117124
0.00118611
0.0011923
0.00119283
0.00119028
0.00118608
0.0011815
0.00117541
0.00116593
0.00114863
0.00112321
0.00109158
0.00105683
0.00102122
0.000986185
0.000952442
0.000919942
0.000887566
0.000852794
0.000818225
0.000780477
0.000736239
0.000683758
0.000642696
0.000748532
0.000862321
0.000950474
0.00102453
0.00108448
0.00113069
0.00116182
0.00118045
0.00118967
0.00119297
0.00119296
0.00119105
0.00118846
0.00118391
0.00117558
0.00115929
0.00113497
0.00110446
0.00107071
0.0010359
0.00100145
0.000968087
0.000935791
0.00090351
0.000868781
0.000834319
0.000796737
0.000752922
0.000700594
0.000654502
0.000739621
0.000844654
0.000935299
0.0010095
0.00106885
0.00111593
0.00115035
0.00117265
0.00118501
0.00119109
0.00119361
0.00119392
0.00119326
0.0011902
0.001183
0.00116779
0.00114469
0.00111541
0.00108279
0.00104893
0.0010152
0.000982382
0.000950441
0.000918388
0.000883857
0.000849611
0.000812356
0.000768977
0.000716917
0.000666342
0.000731122
0.00082353
0.000918677
0.000994117
0.0010535
0.00109992
0.00113722
0.00116297
0.00117861
0.00118744
0.00119245
0.00119493
0.00119614
0.00119452
0.00118844
0.00117437
0.00115257
0.00112465
0.00109329
0.00106049
0.00102761
0.000995457
0.000964033
0.000932343
0.000898154
0.000864264
0.000827432
0.000784512
0.000732769
0.000679113
0.000723803
0.000798148
0.000900089
0.000978074
0.00103821
0.00108481
0.00112276
0.00115165
0.0011707
0.00118224
0.00118971
0.00119432
0.00119729
0.00119706
0.0011921
0.00117923
0.00115883
0.00113237
0.00110238
0.00107075
0.00103883
0.00100748
0.000976714
0.00094555
0.000911795
0.000878383
0.000842059
0.000799637
0.000748241
0.000692376
0.000718095
0.000766009
0.000878856
0.000961146
0.00102281
0.00107
0.00110741
0.00113906
0.00116146
0.00117568
0.00118555
0.00119224
0.00119688
0.001198
0.00119418
0.00118257
0.00116365
0.00113876
0.00111025
0.00107991
0.00104906
0.00101863
0.000988661
0.000958182
0.000924948
0.000892092
0.000856354
0.000814469
0.000763447
0.000706195
0.000714293
0.000728703
0.000854096
0.000943141
0.00100722
0.00105538
0.00109297
0.00112555
0.00115103
0.00116797
0.00118015
0.00118882
0.00119506
0.00119748
0.00119482
0.00118454
0.00116719
0.00114398
0.00111707
0.00108813
0.00105848
0.00102908
0.00100006
0.000970423
0.000937935
0.000905562
0.000870446
0.000829137
0.000778489
0.000720424
0.000712814
0.000697967
0.000823856
0.000923851
0.000991387
0.00104091
0.00107898
0.00111133
0.00113957
0.00115925
0.00117362
0.0011842
0.00119193
0.00119563
0.00119418
0.0011853
0.00116964
0.00114822
0.00112303
0.00109562
0.00106727
0.00103904
0.00101109
0.000982445
0.000950842
0.000918953
0.000884472
0.00084374
0.000793439
0.000734535
0.00071352
0.00069284
0.000786278
0.000903097
0.000975385
0.0010266
0.00106533
0.00109731
0.00112718
0.0011496
0.00116602
0.00117842
0.0011876
0.00119251
0.00119235
0.00118497
0.0011711
0.00115161
0.00112829
0.00110254
0.00107563
0.00104868
0.0010219
0.000994374
0.000963794
0.000932406
0.000898546
0.00085837
0.000808353
0.000748492
0.000716835
0.000716045
0.000750999
0.000880349
0.000959377
0.00101255
0.00105202
0.00108392
0.00111391
0.00113892
0.00115736
0.00117147
0.00118205
0.00118816
0.00118935
0.00118358
0.00117166
0.00115423
0.00113294
0.00110902
0.00108371
0.00105814
0.0010326
0.00100626
0.000976811
0.000945991
0.000912794
0.000873117
0.000823291
0.000762518
0.000722609
0.000748842
0.000733454
0.00085506
0.000943611
0.000998861
0.00103905
0.00107094
0.00109987
0.00112719
0.00114744
0.00116312
0.00117504
0.00118237
0.00118497
0.00118096
0.00117116
0.00115602
0.00113693
0.00111502
0.00109146
0.00106738
0.00104314
0.00101801
0.000989726
0.000959705
0.000927253
0.00088806
0.000838308
0.000776588
0.000730013
0.000782122
0.000735316
0.000830645
0.00092855
0.000985664
0.00102639
0.00105838
0.00108679
0.0011143
0.00113583
0.0011528
0.00116598
0.00117457
0.00117864
0.00117653
0.00116904
0.00115631
0.00113978
0.00112006
0.00109839
0.00107593
0.00105305
0.00102911
0.0010021
0.00097355
0.000942128
0.000903478
0.000853641
0.000790886
0.000738808
0.00081435
0.000752725
0.000811726
0.00091488
0.000973307
0.00101453
0.00104677
0.00107493
0.00110194
0.00112242
0.00113998
0.00115414
0.00116387
0.00116938
0.00116925
0.00116419
0.00115416
0.00114024
0.00112306
0.00110354
0.00108286
0.00106143
0.00103884
0.00101461
0.000988405
0.000958336
0.000920343
0.000870194
0.000806144
0.000749628
0.00084565
0.000775333
0.000802166
0.000904298
0.000963224
0.00100471
0.00103723
0.00106531
0.00109217
0.00111223
0.0011293
0.00114334
0.0011536
0.00116021
0.00116223
0.00115993
0.00115327
0.00114281
0.00112904
0.0011126
0.0010944
0.00107495
0.00105433
0.00103208
0.00100747
0.000978382
0.000940652
0.000889973
0.00082398
0.000764181
0.000879637
0.000802881
0.00080544
0.000899851
0.000958306
0.000999973
0.00103299
0.00106157
0.00108913
0.00110991
0.00112757
0.00114244
0.0011541
0.00116263
0.00116732
0.00116807
0.00116488
0.00115794
0.00114748
0.00113401
0.00111825
0.0011007
0.00108155
0.00106046
0.00103659
0.00100764
0.000969388
0.000917305
0.000848652
0.000785995
0.000926257
0.000847394
0.000837128
0.000919452
0.000976119
0.00101814
0.00105212
0.00108205
0.00111128
0.0011341
0.00115364
0.00117041
0.00118444
0.00119573
0.00120349
0.00120724
0.00120714
0.00120305
0.00119505
0.00118361
0.00116942
0.00115293
0.00113431
0.00111321
0.00108882
0.00105904
0.00101968
0.000965385
0.000893333
0.000828813
0.00104627
0.000984326
0.000977547
0.00104041
0.00109155
0.00113215
0.00116502
0.00119469
0.00122318
0.00124718
0.00126797
0.00128537
0.00130082
0.00131417
0.00132333
0.00132809
0.00132881
0.0013254
0.00131785
0.00130675
0.00129291
0.00127666
0.0012582
0.00123632
0.00121104
0.00118099
0.00114326
0.00109286
0.00102565
0.000967104
0.00146913
0.00145579
0.00146109
0.00148845
0.00151412
0.00153558
0.00154679
0.00155707
0.00156585
0.00157535
0.001585
0.00159131
0.00159953
0.00160865
0.00161278
0.00161429
0.00161347
0.00161073
0.00160571
0.00159952
0.00159293
0.00158631
0.0015794
0.00156634
0.00155213
0.00153708
0.00152015
0.0014989
0.00146759
0.00144192
0.00021546
0.000229554
0.000231531
0.000228879
0.00022292
0.000214779
0.000205404
0.000195542
0.00018572
0.000176385
0.000167769
0.000160175
0.000153676
0.000148407
0.0001436
0.000138341
0.000132256
0.000125503
0.000118345
0.000110902
0.000103281
9.69303e-05
9.32554e-05
9.07295e-05
8.86075e-05
8.74261e-05
9.83788e-05
0.000116748
0.000132059
0.000133315
0.000819049
0.000993853
0.00102366
0.00100818
0.000964836
0.000909007
0.000851222
0.000796595
0.000745857
0.000698819
0.000654035
0.000611299
0.000568214
0.000520978
0.0004672
0.000413528
0.000367057
0.000332782
0.000309492
0.000295721
0.000288577
0.000295155
0.0003096
0.000341994
0.000361485
0.000356755
0.000446541
0.000580493
0.000735468
0.00079935
0.00134638
0.00171101
0.00184245
0.00186561
0.00181942
0.00173491
0.0016385
0.00154262
0.00145051
0.00136324
0.00127859
0.00119554
0.0011109
0.00101632
0.000909578
0.000802739
0.000709113
0.000639818
0.000592886
0.000564365
0.000550706
0.000557649
0.000574533
0.000603164
0.000602896
0.00056093
0.000601844
0.000767584
0.00102427
0.00121849
0.00171835
0.00228733
0.0025045
0.00258152
0.00255624
0.00246466
0.00234877
0.00222591
0.00210385
0.00198613
0.00186989
0.00175074
0.00162658
0.00149042
0.00133824
0.00118596
0.00105136
0.000950523
0.00088119
0.000838017
0.000814401
0.000814839
0.000826133
0.000840749
0.000808169
0.000720939
0.000692368
0.000842365
0.00118878
0.00151361
0.00200823
0.00267361
0.00302839
0.00315493
0.00316
0.00307786
0.0029554
0.00281745
0.00267628
0.00253768
0.00239373
0.00224816
0.0020928
0.00192095
0.00173071
0.00154086
0.00137372
0.00124588
0.00115691
0.00110038
0.00106725
0.00105906
0.00106162
0.00106266
0.000998204
0.000866052
0.00077228
0.000884994
0.00130699
0.00175849
0.00220915
0.00291764
0.00338646
0.00360861
0.00364582
0.00358445
0.00346425
0.0033208
0.00316866
0.00301419
0.00285427
0.0026877
0.00250761
0.00230758
0.00208571
0.00186595
0.00167348
0.00152303
0.00141695
0.00134837
0.0013065
0.00128952
0.00128296
0.00127267
0.00117983
0.0010073
0.00085564
0.000921195
0.00138519
0.00196041
0.00236648
0.00309273
0.00360737
0.00392739
0.00403083
0.00399695
0.00388707
0.00374554
0.00358823
0.00342448
0.00325508
0.00307397
0.00287518
0.00265364
0.0024066
0.00216374
0.00195182
0.00178275
0.00166186
0.00158213
0.00153224
0.00150706
0.00149203
0.00147259
0.00135534
0.00114773
0.000945436
0.000961496
0.00143185
0.00211169
0.00248616
0.00322062
0.00376992
0.00412869
0.00432016
0.0043257
0.00423581
0.00410097
0.00394395
0.00377808
0.00360147
0.00341216
0.00320043
0.00296307
0.00269706
0.00243711
0.00221011
0.00202685
0.00189272
0.00180267
0.00174536
0.00171282
0.00169044
0.00166358
0.0015256
0.00128793
0.00104314
0.00100794
0.0014532
0.00221318
0.00256236
0.00330496
0.00388238
0.00427759
0.00450393
0.00458329
0.00451849
0.00439499
0.00424408
0.00407887
0.00389881
0.00370784
0.00348801
0.00323962
0.00296047
0.00268868
0.00245028
0.00225643
0.00211069
0.00201112
0.00194684
0.00190789
0.00187957
0.00184656
0.00169111
0.00142791
0.0011469
0.00105632
0.00145765
0.00227104
0.00258431
0.00334506
0.00395157
0.00437913
0.00463987
0.00475098
0.00474028
0.00463581
0.00449536
0.00433398
0.00415752
0.00396441
0.00374218
0.00348655
0.00319986
0.00292072
0.00267413
0.00247247
0.00231681
0.0022086
0.00213756
0.00209326
0.00206068
0.00202241
0.00185234
0.00156745
0.00125514
0.00110519
0.00144914
0.00229385
0.00252611
0.00333711
0.00398042
0.0044402
0.00473392
0.00487721
0.00489959
0.00482924
0.00470336
0.00454984
0.00437834
0.00418588
0.00396647
0.00370765
0.00341801
0.00313522
0.00288323
0.00267549
0.00251232
0.00239596
0.00231861
0.00226975
0.00223479
0.00219193
0.00200978
0.00170646
0.00136726
0.00116438
0.0014401
0.0022911
0.00240779
0.00327281
0.00397053
0.00446587
0.00479165
0.00496824
0.00501789
0.00498046
0.00487323
0.00473169
0.00456672
0.00438029
0.00416094
0.00390575
0.00361725
0.00333398
0.00307892
0.00286652
0.00269777
0.00257394
0.00249083
0.00243807
0.00240219
0.00235573
0.00216389
0.00184494
0.0014833
0.00123363
0.00143601
0.00227244
0.00225006
0.00314883
0.00392079
0.00445894
0.00481805
0.0050282
0.00510655
0.00509253
0.00501047
0.00488362
0.00472745
0.00454822
0.00433426
0.0040811
0.00379972
0.00351852
0.00326231
0.00304652
0.00287357
0.00274313
0.0026549
0.00259882
0.0025633
0.00251437
0.00231519
0.00198295
0.00160118
0.00130734
0.00144328
0.00224405
0.00207151
0.00298643
0.00381546
0.00442005
0.00481765
0.00506041
0.00516916
0.00518046
0.00511967
0.00500937
0.00486457
0.0046929
0.00448737
0.0042419
0.00396618
0.00369
0.00343435
0.00321628
0.00303994
0.00290413
0.0028114
0.00275247
0.00271842
0.0026683
0.00246414
0.00212063
0.00171725
0.00138551
0.00146529
0.00221469
0.00188785
0.00280385
0.00367389
0.00434522
0.00479277
0.00506858
0.0052088
0.00524425
0.00520475
0.00511398
0.00498084
0.00481844
0.00462298
0.0043876
0.00412061
0.0038498
0.00359582
0.00337636
0.00319703
0.00305732
0.00296065
0.00289931
0.00286763
0.0028177
0.00261105
0.0022582
0.0018362
0.00147378
0.00149874
0.00219045
0.00171248
0.0026162
0.00351169
0.00423507
0.00474375
0.00505657
0.00522788
0.00528783
0.00526965
0.00519825
0.00507872
0.00492814
0.00474327
0.00451975
0.00426281
0.00399861
0.0037472
0.0035271
0.00334521
0.00320239
0.00310255
0.00303931
0.00301063
0.00296232
0.00275575
0.00239638
0.00195858
0.00157167
0.00154433
0.00217306
0.0015561
0.00243523
0.00334117
0.00410156
0.00466375
0.00502712
0.0052299
0.00531404
0.00531765
0.00526502
0.0051631
0.00502395
0.0048502
0.00463929
0.00439314
0.00413624
0.00388824
0.0036682
0.00348423
0.00333861
0.00323641
0.0031719
0.00314636
0.00310099
0.00289729
0.00253472
0.00208403
0.00167709
0.00159203
0.00216214
0.00143034
0.00226502
0.0031702
0.00395595
0.00456273
0.00498045
0.00521794
0.00532525
0.0053509
0.0053175
0.00523366
0.00510631
0.00494414
0.00474596
0.00451031
0.00426154
0.00401782
0.00379837
0.00361279
0.00346444
0.00336052
0.00329557
0.00327255
0.00323124
0.00303339
0.00267162
0.00221184
0.0017896
0.00164335
0.00216393
0.00134062
0.0021064
0.00300597
0.00380698
0.00444941
0.00491325
0.00519203
0.00532575
0.00537127
0.00535745
0.00528923
0.00517326
0.00502355
0.00483694
0.00461243
0.00437168
0.00413275
0.00391446
0.00372774
0.00357712
0.00347108
0.00340731
0.00338474
0.0033481
0.00315982
0.00280363
0.0023411
0.00190398
0.00171136
0.00217443
0.00129871
0.00196303
0.0028538
0.00366165
0.00433036
0.00483254
0.00515407
0.00531258
0.0053793
0.00537996
0.00532955
0.00522305
0.00508326
0.00490791
0.00469344
0.0044605
0.00422654
0.00401002
0.00382287
0.00367009
0.00356212
0.00349949
0.00347497
0.0034439
0.00326952
0.00292471
0.00246436
0.00201894
0.00179217
0.00219368
0.00130778
0.00184608
0.00271669
0.00352501
0.0042108
0.00474334
0.00510356
0.00528673
0.00537109
0.00538257
0.00534558
0.00524652
0.00511156
0.00494792
0.00474163
0.00451569
0.00428705
0.00407335
0.003886
0.00373201
0.00362303
0.00355972
0.00353231
0.00350604
0.00335196
0.00302587
0.00257522
0.00212644
0.00187417
0.00222953
0.00139791
0.00177057
0.00259765
0.00340021
0.00409383
0.00464761
0.00503655
0.00524628
0.00532028
0.00535005
0.00532035
0.0052278
0.00509138
0.00493509
0.00473633
0.00451655
0.00429422
0.00408412
0.00389612
0.00374411
0.00363506
0.00356981
0.00354154
0.00351958
0.00339095
0.00309476
0.00266493
0.00222206
0.00194931
0.00228126
0.0015183
0.00174059
0.00250099
0.00328737
0.00397998
0.00453023
0.00490539
0.00511754
0.00522511
0.00525716
0.00522531
0.00513399
0.00499505
0.00483514
0.00464593
0.00443318
0.00421797
0.00400963
0.00382734
0.00367911
0.00357205
0.00350852
0.00348312
0.00346906
0.00336978
0.00311761
0.00272275
0.00229765
0.00201892
0.00232957
0.00165435
0.00173342
0.00242899
0.00318213
0.00382074
0.00431566
0.00467478
0.00492773
0.0050406
0.00505874
0.00501436
0.00491959
0.0047815
0.00461614
0.00443317
0.0042346
0.0040257
0.00382865
0.00365749
0.00351954
0.00342112
0.00336545
0.00334799
0.00334426
0.00328008
0.00308422
0.00273888
0.0023489
0.00208315
0.00235896
0.0017744
0.00179005
0.00236253
0.00301065
0.00356561
0.00403222
0.00437983
0.00460122
0.00469441
0.00469989
0.00464736
0.00455371
0.00442539
0.0042707
0.0040966
0.00392262
0.00373967
0.00356831
0.00341968
0.00330073
0.00321695
0.00317125
0.00315999
0.00316336
0.00313268
0.00299766
0.00271003
0.00237106
0.00213006
0.00236931
0.00188041
0.00184558
0.00228375
0.00281035
0.00328633
0.00365789
0.00393736
0.00410984
0.00417794
0.00418138
0.00414329
0.00407477
0.00397859
0.00386105
0.0037236
0.00358932
0.00345608
0.00332531
0.0032093
0.00311443
0.00304593
0.00300584
0.00299216
0.00299352
0.00297855
0.00288932
0.00265426
0.00236539
0.0021553
0.0023572
0.00197316
0.00187953
0.00217581
0.00256397
0.00292208
0.00319892
0.00341262
0.00356198
0.00364071
0.00367134
0.00367245
0.00364893
0.00360206
0.00353883
0.00345966
0.00337742
0.00329833
0.00321516
0.0031346
0.00306412
0.0030084
0.00296901
0.00294441
0.00292846
0.00290269
0.00282563
0.00262626
0.00236583
0.00216094
0.0022764
0.00213175
0.00198609
0.00212326
0.00241407
0.00267993
0.00290028
0.00308144
0.003225
0.0033244
0.00338287
0.00341794
0.0034314
0.00342482
0.0034037
0.00336906
0.00332756
0.00328362
0.0032297
0.00317436
0.00312241
0.00307791
0.00304274
0.00301511
0.00298987
0.00295491
0.00287866
0.00270886
0.00246631
0.00223673
0.00224436
0.00248634
0.00237851
0.00243671
0.00262775
0.0028059
0.00295745
0.0030839
0.00319001
0.00326914
0.0033195
0.00335373
0.00337025
0.00337044
0.00335645
0.00332754
0.00329361
0.00325644
0.00321919
0.00318256
0.00314929
0.00312216
0.00310227
0.00308743
0.00307116
0.00304453
0.00299091
0.00288692
0.00272789
0.00254997
0.00251135
0.00293974
0.0028993
0.00291723
0.00297822
0.00304115
0.00310164
0.00315413
0.00320065
0.00323452
0.00325462
0.00326877
0.00327497
0.00327414
0.00326279
0.00323663
0.00320745
0.00317957
0.00315549
0.0031371
0.00312634
0.00312303
0.00312585
0.00313268
0.00313791
0.00313874
0.00312844
0.00310146
0.0030493
0.00297934
0.00295885
0.000239969
0.000259428
0.000262029
0.000259841
0.000254061
0.000245717
0.000235806
0.000225115
0.000214189
0.000203482
0.00019318
0.000183556
0.000174516
0.00016611
0.000157285
0.000147135
0.000135667
0.000123698
0.000112
0.000100682
8.87225e-05
7.78554e-05
7.37319e-05
8.04496e-05
8.40589e-05
9.2276e-05
0.000108567
0.000127904
0.00014367
0.000149631
0.00102477
0.00129942
0.00138553
0.0013778
0.0013213
0.00124194
0.00115817
0.00107676
0.000999166
0.000925041
0.000851896
0.00077947
0.000701629
0.000616072
0.000527806
0.000457592
0.000412875
0.000396419
0.000396882
0.000405419
0.000402617
0.000438091
0.000512832
0.000449953
0.000374942
0.000356525
0.00051037
0.000708563
0.000926131
0.00100766
0.00169198
0.00223205
0.00248949
0.00256479
0.0025229
0.00241241
0.00227677
0.00213337
0.00198934
0.00184629
0.00170158
0.00155459
0.00139408
0.00121793
0.00103831
0.000894368
0.000801146
0.000761748
0.000757244
0.000764516
0.00076003
0.000820486
0.000925827
0.000831511
0.000660716
0.0005899
0.000763087
0.00106156
0.00141315
0.00160362
0.00216296
0.00296885
0.00335824
0.00352332
0.00352499
0.0034159
0.00325834
0.0030771
0.00288639
0.00269054
0.00248866
0.00227886
0.00204471
0.00178777
0.00152977
0.00132415
0.00118823
0.00112512
0.00110958
0.00111388
0.00110784
0.00116523
0.0012561
0.00114119
0.000913113
0.000770176
0.000890246
0.00124323
0.00174734
0.00208228
0.00254048
0.00347322
0.00405117
0.00428888
0.00433983
0.00425077
0.0040868
0.00388401
0.00366169
0.00342781
0.00318425
0.00291834
0.00262192
0.0023009
0.00197939
0.00172562
0.00155659
0.00147248
0.00144617
0.00144656
0.00144011
0.00148762
0.00155429
0.00142345
0.00115464
0.000938529
0.000985657
0.00135812
0.00200372
0.00250438
0.00281093
0.00380049
0.00451948
0.00490249
0.00500179
0.0049442
0.00478281
0.00457033
0.00432659
0.00406608
0.00378714
0.00347844
0.0031344
0.00276097
0.00238949
0.00209939
0.00190542
0.00180318
0.00176685
0.00176312
0.00175751
0.0017938
0.00183723
0.00169113
0.00139135
0.00111069
0.00107506
0.00143669
0.00219648
0.00287016
0.00303897
0.004062
0.00483224
0.00533634
0.00553772
0.0055174
0.00536826
0.0051536
0.00489613
0.00461651
0.00430868
0.00397122
0.00358964
0.00317473
0.00276607
0.0024497
0.00223731
0.00211917
0.0020732
0.00206517
0.00206069
0.00208678
0.0021106
0.00194966
0.0016248
0.00129253
0.00117812
0.00149744
0.00234002
0.00317616
0.00324078
0.00428284
0.00509341
0.00564252
0.00594438
0.00598475
0.00586055
0.00564779
0.00538422
0.00509058
0.00476275
0.00440452
0.00399619
0.00354871
0.00311508
0.0027809
0.00255497
0.00242293
0.00236709
0.0023544
0.00235075
0.00236878
0.00237628
0.00220108
0.00185575
0.00147926
0.00129345
0.00155701
0.00244492
0.00342346
0.00341332
0.00446479
0.00530737
0.00589562
0.00623306
0.00636496
0.00627031
0.00606458
0.00580205
0.00549913
0.00516169
0.00478557
0.00436043
0.00389007
0.00344197
0.00309686
0.00286056
0.00271697
0.00265049
0.00263235
0.00262886
0.00264153
0.00263469
0.00244595
0.00208384
0.00166996
0.00141872
0.00162185
0.00251971
0.00361799
0.00354427
0.00460414
0.00547351
0.00609471
0.00647142
0.00662916
0.00660346
0.00641479
0.00615849
0.00585196
0.00550891
0.00512083
0.0046864
0.00420487
0.00375155
0.00340095
0.0031565
0.00300285
0.00292487
0.00290034
0.00289604
0.00290658
0.00288532
0.00268397
0.00230815
0.00186314
0.00155192
0.00169497
0.00257599
0.00376314
0.00361473
0.00469435
0.00559271
0.00624864
0.00666253
0.00684949
0.00685397
0.00670573
0.00646055
0.00615775
0.00581231
0.00542337
0.00497933
0.00449891
0.00404784
0.00369585
0.00344477
0.00328166
0.00319142
0.00315931
0.00315318
0.00316329
0.00312692
0.0029143
0.00252758
0.00205721
0.00169054
0.00178108
0.00261714
0.00386545
0.00361223
0.00472519
0.00566729
0.00635826
0.00680744
0.00702866
0.00705829
0.00694497
0.00671599
0.00642286
0.00607945
0.00569256
0.00524628
0.00477557
0.00433395
0.00398357
0.00372672
0.00355422
0.00345084
0.00340985
0.00340082
0.00340977
0.00335838
0.00313573
0.00274085
0.0022507
0.00183788
0.00187618
0.00265407
0.00393188
0.00353244
0.00469358
0.00569465
0.00642992
0.00691152
0.0071701
0.00722754
0.00713516
0.00693225
0.00665259
0.00631583
0.00593436
0.00549739
0.00503981
0.00461224
0.00426532
0.00400304
0.00382065
0.00370344
0.00365199
0.00363915
0.0036445
0.00357793
0.00334662
0.00294654
0.00244202
0.00199312
0.00196854
0.00269231
0.00397459
0.00338387
0.00460198
0.00567326
0.00646485
0.00698357
0.00727572
0.00736471
0.00729622
0.00711529
0.00685136
0.00652699
0.00615489
0.00573594
0.0052951
0.00488398
0.00454133
0.00427354
0.00408028
0.00394883
0.00388532
0.00386757
0.00386541
0.00378313
0.00354481
0.00314285
0.00262926
0.00215264
0.00207036
0.00273617
0.0040066
0.0031856
0.00446002
0.00560722
0.00646343
0.00702694
0.00734814
0.00747163
0.00742932
0.00726979
0.00702465
0.00671699
0.00635953
0.00596297
0.00554402
0.00514902
0.00481052
0.00453683
0.00433164
0.00418514
0.0041089
0.00408368
0.00406913
0.0039706
0.00372729
0.00332739
0.00281019
0.00231483
0.00218984
0.00278882
0.00403653
0.00296272
0.00428232
0.00550351
0.00642879
0.00704316
0.00739746
0.00755127
0.00753672
0.00740016
0.00717676
0.00688836
0.00655048
0.00617493
0.00578377
0.00540487
0.00506996
0.00478979
0.00457168
0.0044089
0.00431922
0.00428241
0.00425054
0.00413559
0.00389001
0.00349685
0.00298186
0.00247719
0.00232069
0.00285484
0.00407003
0.00274114
0.00408536
0.00537142
0.00636531
0.00703282
0.00742494
0.0076043
0.00761999
0.00751
0.0073105
0.00704189
0.00672534
0.0063766
0.00601023
0.00564635
0.005314
0.00502663
0.00479446
0.004615
0.00450937
0.0044555
0.00440219
0.00427175
0.00402746
0.00364656
0.0031399
0.00263688
0.00245561
0.00293748
0.00410968
0.00254543
0.00388466
0.00522117
0.00627816
0.00699841
0.00743092
0.00763667
0.00767481
0.00759096
0.00742263
0.00718057
0.0068788
0.006557
0.00621495
0.00586433
0.00553307
0.0052377
0.00499003
0.00479394
0.00466851
0.00459158
0.0045141
0.0043709
0.00413274
0.00377047
0.0032789
0.00278988
0.00258358
0.00304384
0.0041565
0.00239415
0.00369394
0.00506311
0.00617267
0.00694162
0.00741337
0.00764813
0.00770777
0.00764333
0.00752241
0.00729305
0.00700456
0.0067011
0.00638486
0.00604435
0.00571226
0.00540802
0.0051439
0.00492888
0.00478006
0.00467611
0.00457404
0.00442359
0.00419794
0.00386181
0.00339372
0.00292914
0.0027045
0.00315923
0.00420815
0.00230274
0.00352466
0.00490716
0.00605351
0.00686296
0.00737144
0.007635
0.00771536
0.00767664
0.00756595
0.00735937
0.00708728
0.00679353
0.00649688
0.00616494
0.00583008
0.00551698
0.00523303
0.00499821
0.0048239
0.00469347
0.00457093
0.00442068
0.00421522
0.00391358
0.00347828
0.00304599
0.00281689
0.00327052
0.00425895
0.00224721
0.00338736
0.00476281
0.00592284
0.00676144
0.00730127
0.00758838
0.00764457
0.00763463
0.00753951
0.00735189
0.00710046
0.00681173
0.00651905
0.00619866
0.00585989
0.00553705
0.00523245
0.00497972
0.00478357
0.00463199
0.0044981
0.00435661
0.00417928
0.0039204
0.00352729
0.00313562
0.00291627
0.00335825
0.00429961
0.00225489
0.00329291
0.00462624
0.00577999
0.00661522
0.00712689
0.00735835
0.00747447
0.0074936
0.00741006
0.00723571
0.00700339
0.00672369
0.0064253
0.00611309
0.00577624
0.00544138
0.00512811
0.00486537
0.00465651
0.00449358
0.0043595
0.00423455
0.00409136
0.00388118
0.003538
0.00319256
0.00300191
0.00342079
0.00431467
0.00234505
0.00322261
0.00447247
0.00554735
0.00628383
0.00674008
0.00702668
0.00718806
0.00721906
0.00713323
0.00697212
0.0067592
0.00649927
0.00620305
0.00588909
0.00556698
0.0052369
0.00493278
0.00467345
0.00446497
0.00430333
0.0041775
0.00407268
0.00396427
0.0038033
0.00351284
0.00321289
0.00305853
0.00344942
0.00427035
0.00240904
0.00311592
0.00421755
0.00512548
0.00578346
0.00626933
0.00658188
0.0067402
0.00676296
0.00668443
0.00654562
0.00636105
0.00613282
0.00586359
0.00555892
0.00526418
0.00497023
0.00469243
0.00445294
0.00425852
0.00410767
0.00399375
0.00390646
0.00382552
0.00370606
0.00346466
0.00319991
0.00307403
0.00342423
0.00413084
0.0024654
0.00303337
0.00385731
0.00463342
0.00524892
0.00568379
0.00597
0.00612115
0.00614511
0.00609409
0.00599648
0.005859
0.00568019
0.00546025
0.00519918
0.00494718
0.0047074
0.00447311
0.00426402
0.00409205
0.00395691
0.0038547
0.00377871
0.00371339
0.00362099
0.00342098
0.00317068
0.00304523
0.00332797
0.0038799
0.00253127
0.00288634
0.00352792
0.00412196
0.00461553
0.00500007
0.00525988
0.00542014
0.00547824
0.00547784
0.00543868
0.00536261
0.00524605
0.00508976
0.00489328
0.00469435
0.00450796
0.00431563
0.00413779
0.00398942
0.00387148
0.00378188
0.00371525
0.00365884
0.00358189
0.00341575
0.0031636
0.00299763
0.00316437
0.00357799
0.00261114
0.00272339
0.00318199
0.00364608
0.00405815
0.00439084
0.004644
0.00482779
0.00493393
0.00498657
0.00500306
0.00498319
0.00492276
0.00482292
0.00468405
0.00452798
0.00436967
0.00420705
0.0040649
0.0039451
0.00384977
0.00377816
0.00372519
0.00367888
0.0036141
0.00347904
0.00323654
0.00302282
0.00303304
0.00330389
0.00284868
0.00283203
0.00310838
0.00346729
0.00379829
0.00407965
0.00430977
0.00449146
0.00461769
0.00469552
0.00473991
0.00474972