/*--------------------------------*- C++ -*----------------------------------*\
| =========                 |                                                 |
| \\      /  F ield         | OpenFOAM: The Open Source CFD Toolbox           |
|  \\    /   O peration     | Version:  5.0                                   |
|   \\  /    A nd           | Web:      www.OpenFOAM.org                      |
|    \\/     M anipulation  |                                                 |
\*---------------------------------------------------------------------------*/
FoamFile
{
    version     2.0;
    format      ascii;
    class       volScalarField;
    location    "800/air";
    object      epsilon;
}
// * * * * * * * * * * * * * * * * * * * * * * * * * * * * * * * * * * * * * //

dimensions      [0 2 -3 0 0 0 0];

internalField   nonuniform List<scalar> 
243000
(
4.39886
5.6062
6.39634
6.87606
7.08107
7.05716
6.85886
6.54563
6.16655
5.767
5.3799
5.04306
4.7857
4.62697
4.50484
4.34138
4.10021
3.79694
3.45975
3.11288
2.77418
2.46605
2.17879
1.87033
1.50972
1.0814
0.173902
1.16991
1.42831
1.25712
2.32605
2.97172
3.31766
3.45628
3.45642
3.35876
3.19543
2.99506
2.77946
2.56654
2.36692
2.19415
2.05379
1.93833
1.82087
1.68584
1.53814
1.39328
1.25916
1.13808
1.03056
0.940074
0.863145
0.780436
0.678094
0.529691
0.404497
0.55249
0.785944
0.819986
2.97722
3.84691
4.37657
4.59673
4.62511
4.517
4.31836
4.06772
3.79357
3.51982
3.26023
3.03303
2.84308
2.67767
2.49934
2.29085
2.06492
1.8484
1.65351
1.48271
1.33449
1.20913
1.10072
0.993202
0.870617
0.705654
0.544441
0.620977
0.971207
1.11168
3.37807
4.45282
5.1382
5.45543
5.53689
5.44673
5.24419
4.97419
4.6708
4.36287
4.06729
3.80608
3.58318
3.38166
3.15438
2.8825
2.58558
2.30134
2.04685
1.82589
1.63562
1.47371
1.33086
1.19369
1.04723
0.865575
0.673658
0.668416
1.0975
1.35579
3.61832
4.81967
5.65892
6.0797
6.22711
6.17438
5.99
5.72386
5.41386
5.09303
4.78114
4.50283
4.26062
4.03455
3.76867
3.44358
3.08551
2.74071
2.43137
2.16302
1.93209
1.73429
1.55748
1.38882
1.21698
1.01731
0.799331
0.718059
1.17947
1.55513
3.74234
4.99891
5.97703
6.51117
6.7305
6.72806
6.57705
6.33166
6.03221
5.71513
5.40256
5.12098
4.87094
4.62991
4.33446
3.96561
3.55679
3.15962
2.8015
2.48988
2.2211
1.98933
1.78043
1.58045
1.38319
1.16448
0.924258
0.786129
1.21738
1.71928
3.78069
5.05001
6.11168
6.78007
7.07615
7.1335
7.02606
6.81348
6.53742
6.23692
5.93607
5.66242
5.41399
5.16615
4.84908
4.44546
3.99569
3.55438
3.15398
2.80383
2.50058
2.23744
1.9988
1.76884
1.54703
1.30894
1.04895
0.862444
1.23272
1.84931
3.75567
5.01356
6.1216
6.89523
7.28825
7.41192
7.35564
7.18437
6.94126
6.66723
6.38774
6.13085
5.89199
5.64413
5.31229
4.88245
4.4005
3.92329
3.487
3.10324
2.76922
2.47759
2.21171
1.95377
1.70879
1.45164
1.17359
0.945524
1.23535
1.94462
3.68637
4.91882
6.05024
6.88597
7.38413
7.58148
7.58165
7.45793
7.25492
7.01486
6.76417
6.53116
6.30814
6.0658
5.72508
5.27695
4.77073
4.26571
3.79972
3.38718
3.02616
2.70903
2.41853
2.13494
1.86851
1.59318
1.2989
1.03363
1.22919
2.00712
3.58195
4.77913
5.91706
6.79815
7.37312
7.65406
7.71808
7.64633
7.48864
7.28818
7.07225
6.86846
6.66613
6.43337
6.08928
5.63004
5.10684
4.58148
4.09175
3.65515
3.27088
2.93138
2.61883
2.31217
2.02618
1.73389
1.42363
1.12583
1.21938
2.03979
3.47094
4.60452
5.73519
6.65047
7.28676
7.64038
7.77548
7.76037
7.65191
7.49525
7.31837
7.14776
6.96946
6.74955
6.40703
5.94312
5.40982
4.87048
4.36323
3.90704
3.50327
3.14437
2.81242
2.48538
2.18184
1.87402
1.54789
1.22231
1.21243
2.04817
3.3494
4.41963
5.51565
6.4543
7.14033
7.56471
7.76374
7.81003
7.75352
7.64361
7.50858
7.3738
7.22158
7.01712
6.68061
6.21786
5.68081
5.13332
4.61431
4.14304
3.72335
3.34805
2.99931
2.65458
2.33551
2.01384
1.67278
1.32685
1.214
2.03551
3.21295
4.23807
5.27335
6.2198
6.94818
7.43537
7.69979
7.80452
7.80153
7.74017
7.6485
7.55096
7.42604
7.23898
6.9124
6.45609
5.92107
5.37088
4.8451
4.36349
3.93133
3.54251
3.17958
2.8198
2.48722
2.15237
1.79842
1.43446
1.23123
2.00417
3.05821
4.05505
5.04712
5.95918
6.7192
7.26001
7.59095
7.75281
7.8039
7.79127
7.74328
7.6833
7.58635
7.41807
7.10484
6.6597
6.13199
5.58424
5.05619
4.5685
4.12748
3.72802
3.35343
2.98113
2.63698
2.29027
1.92444
1.54286
1.27711
1.94934
2.88122
3.86613
4.82776
5.70165
6.46273
7.04947
7.44312
7.66207
7.76635
7.80268
7.79765
7.77469
7.70589
7.55734
7.26052
6.83074
6.31512
5.77451
5.24846
4.75843
4.31226
3.90515
3.52131
3.13884
2.78482
2.42816
2.05118
1.65361
1.34115
1.88276
2.67965
3.66749
4.61064
5.45779
6.19042
6.81316
7.26187
7.53857
7.69438
7.77884
7.81582
7.8289
7.7878
7.65983
7.38205
6.97139
6.47216
5.94309
5.42303
4.93421
4.48603
4.07447
3.68388
3.2935
2.93165
2.56642
2.17896
1.76644
1.41375
1.82112
2.45155
3.45561
4.39258
5.2229
5.93586
6.55893
7.05369
7.38791
7.59284
7.72386
7.80197
7.84929
7.8352
7.72859
7.47216
7.08399
6.6051
6.09158
5.58121
5.097
4.64994
4.23692
3.84237
3.44585
3.07801
2.70556
2.30834
1.88156
1.49491
1.77047
2.18921
3.2263
4.17149
4.99422
5.69418
6.29497
6.82595
7.21468
7.46631
7.64161
7.75934
7.83887
7.85111
7.76657
7.53363
7.17103
6.71621
6.22197
5.72481
5.2484
4.80548
4.39406
3.99832
3.5971
3.22477
2.84636
2.44005
1.99946
1.58298
1.73284
1.89412
2.97493
3.94616
4.77027
5.46273
6.04886
6.58682
7.02216
7.31916
7.53586
7.69073
7.80055
7.83837
7.77681
7.56935
7.2352
6.80787
6.33644
5.85585
5.39043
4.95467
4.54776
4.15351
3.74903
3.37313
2.9898
2.57506
2.12081
1.67976
1.71019
1.63936
2.69514
3.71585
4.55063
5.2404
5.81716
6.34087
6.81477
7.15532
7.40977
7.59906
7.73704
7.79949
7.76181
7.5819
7.27915
6.88258
6.43748
5.97684
5.52546
5.09967
4.69984
4.30984
3.90453
3.52474
3.13711
2.71429
2.24614
1.77823
1.70583
1.54806
2.36549
3.48048
4.33616
5.027
5.59729
6.10086
6.59523
6.97668
7.26482
7.48615
7.65045
7.73622
7.72384
7.57351
7.30503
6.94254
6.52743
6.09021
5.656
5.24271
4.85213
4.4688
4.0653
3.68138
3.28952
2.85855
2.3758
1.88148
1.72042
1.64378
2.05444
3.24176
4.12902
4.82318
5.38853
5.87774
6.36505
6.78274
7.10218
7.35217
7.54108
7.64916
7.66337
7.54505
7.31393
6.98905
6.60781
6.19775
5.78391
5.38554
5.00587
4.63092
4.23158
3.84423
3.4485
3.00889
2.51051
1.98874
1.75264
1.85604
1.87521
2.98889
3.93188
4.6301
5.19033
5.66711
6.126
6.57386
6.91911
7.19359
7.40521
7.53546
7.5769
7.4934
7.30332
7.02072
6.67716
6.29842
5.90839
5.5274
5.16018
4.79451
4.4011
4.01363
3.61532
3.16658
2.65102
2.10049
1.7981
2.11169
1.83905
2.75211
3.7492
4.44863
5.00156
5.46844
5.90865
6.34947
6.70923
7.00155
7.23285
7.38478
7.45404
7.40756
7.26241
7.02474
6.72661
6.38321
6.02075
5.66021
5.30738
4.95233
4.56833
4.1904
3.79286
3.335
2.79973
2.21834
1.85696
2.385
1.92521
2.5676
3.5874
4.28268
4.82868
5.28884
5.7152
6.13928
6.47341
6.76867
7.01304
7.18303
7.27831
7.26983
7.17161
6.98512
6.73395
6.43366
6.10445
5.76872
5.43346
5.09627
4.74716
4.38773
3.99353
3.52651
2.96657
2.34907
1.93311
2.67324
2.08094
2.46746
3.46374
4.14942
4.68801
5.14307
5.56033
5.97566
6.29723
6.58004
6.81892
6.99627
7.1109
7.14312
7.09699
6.97297
6.78389
6.54117
6.26004
5.95867
5.64778
5.3305
5.00024
4.64901
4.25128
3.76653
3.17432
2.50867
2.04178
3.01155
2.29794
2.47894
3.40957
4.08341
4.61925
5.07749
5.49895
5.92407
6.25644
6.54947
6.80335
7.00742
7.15849
7.24127
7.25219
7.19112
7.06238
6.87256
6.63369
6.36174
6.06795
5.75776
5.42732
5.06636
4.64636
4.12424
3.47741
2.74106
2.21759
3.52175
2.69529
2.76281
3.62611
4.30736
4.86801
5.35777
5.81684
6.28869
6.67129
7.01305
7.31607
7.57766
7.79261
7.94249
8.01499
8.01193
7.92995
7.77235
7.55129
7.28346
6.98023
6.64759
6.28234
5.87489
5.39787
4.80386
4.05734
3.19982
2.59996
5.11771
4.26599
4.33557
5.21641
5.996
6.67007
7.25496
7.81336
8.37674
8.86817
9.31243
9.69548
10.0485
10.3598
10.5769
10.6907
10.7078
10.6243
10.4427
10.1804
9.85992
9.49228
9.08422
8.61556
8.09346
7.49797
6.78848
5.90851
4.86472
4.13637
14.4131
14.0519
14.294
15.1323
15.9087
16.5737
16.9312
17.2658
17.5583
17.876
18.2036
18.4172
18.7162
19.0379
19.1856
19.2394
19.2091
19.1084
18.9272
18.7066
18.475
18.2429
17.9967
17.5455
17.072
16.5778
16.0356
15.3528
14.3905
13.7139
7.41439
10.3973
12.3378
13.7264
14.5244
14.7814
14.5958
14.0863
13.3595
12.5184
11.6305
10.7761
9.98279
9.28295
8.54103
7.62598
6.54461
5.40469
4.31089
3.32438
2.48261
1.88775
1.50951
1.24158
1.01681
0.881117
1.09913
1.64272
1.96214
1.74941
4.84814
6.09063
7.14242
7.93814
8.43031
8.63176
8.57643
8.31503
7.90822
7.41465
6.87878
6.34067
5.8165
5.31727
4.77866
4.16274
3.52348
2.91641
2.38355
1.93214
1.54863
1.23723
0.99918
0.821457
0.701282
0.637622
0.651671
0.765165
1.01032
1.25878
4.16831
5.24207
6.1136
6.79312
7.24187
7.46411
7.48163
7.32209
7.02845
6.64537
6.21022
5.76148
5.31216
4.87455
4.38035
3.8108
3.2257
2.68863
2.2317
1.85712
1.5382
1.27198
1.06377
0.902499
0.778091
0.67509
0.615518
0.734823
1.04891
1.35993
3.75321
4.80105
5.63108
6.28576
6.74178
6.99882
7.07364
6.98761
6.77053
6.45747
6.08373
5.69689
5.30464
4.90355
4.42958
3.87104
3.29168
2.7639
2.31967
1.95955
1.65724
1.40063
1.19724
1.03835
0.90429
0.769053
0.657831
0.750148
1.12659
1.48217
3.41731
4.43488
5.27613
5.93602
6.41702
6.71446
6.84055
6.8169
6.66218
6.40553
6.09371
5.75149
5.40177
5.03386
4.5742
4.01799
3.43683
2.90624
2.46037
2.09973
1.79948
1.54371
1.34037
1.18093
1.03978
0.882774
0.73029
0.780297
1.19892
1.59165
3.11641
4.09808
4.95397
5.63577
6.14656
6.48474
6.65829
6.68904
6.59033
6.39028
6.12382
5.82737
5.51767
5.17817
4.73015
4.17498
3.59214
3.05752
2.60747
2.24267
1.94059
1.68417
1.48058
1.32034
1.1745
1.00476
0.822493
0.828397
1.25238
1.6836
2.84661
3.78762
4.64986
5.35729
5.89614
6.27228
6.48957
6.56762
6.52125
6.37248
6.14914
5.89616
5.62441
5.31017
4.87274
4.32039
3.73789
3.20097
2.7475
2.37871
2.07408
1.81771
1.61499
1.4545
1.30612
1.12946
0.928737
0.89175
1.28536
1.75951
2.6128
3.5079
4.36743
5.09006
5.65552
6.06545
6.32202
6.44167
6.44254
6.33815
6.16139
5.94851
5.71223
5.42061
4.99367
4.44708
3.86754
3.33113
2.87616
2.50502
2.19859
1.94359
1.74319
1.58343
1.43455
1.25482
1.04161
0.964157
1.30121
1.82105
2.4238
3.2654
4.11062
4.83763
5.42225
5.86141
6.15227
6.30918
6.3507
6.29007
6.15848
5.98091
5.7778
5.50659
5.09061
4.55291
3.97924
3.44642
2.99248
2.62107
2.31452
2.06242
1.86575
1.70799
1.56052
1.38071
1.16024
1.04013
1.30726
1.86994
2.28792
3.06686
3.88145
4.60405
5.19931
5.65945
5.98009
6.17001
6.24682
6.22713
6.13302
5.9952
5.82088
5.56791
5.16378
4.63774
4.073
3.54697
3.09673
2.72716
2.42287
2.17529
1.98363
1.82949
1.68515
1.50732
1.2832
1.1219
1.3107
1.90789
2.22334
2.92003
3.68416
4.38955
4.98777
5.46126
5.80623
6.02526
6.13332
6.14996
6.09297
5.99273
5.84187
5.60571
5.21471
4.70239
4.14998
3.63365
3.18977
2.82427
2.52457
2.28326
2.09803
1.94938
1.80978
1.63528
1.40983
1.21061
1.32158
1.93711
2.19825
2.8345
3.52366
4.19524
4.78811
5.26845
5.63228
5.8765
6.01267
6.06058
6.03888
5.96955
5.84676
5.62266
5.24582
4.74932
4.212
3.70798
3.27284
2.91367
2.6207
2.38732
2.21023
2.06912
1.93587
1.76562
1.54015
1.30603
1.34429
1.96009
2.18947
2.79468
3.40636
4.02449
4.60064
5.08228
5.45993
5.72539
5.88672
5.96212
5.97203
5.93189
5.83035
5.62518
5.26001
4.7814
4.26141
3.77182
3.34755
2.99677
2.71245
2.48852
2.32147
2.19014
2.06504
1.89976
1.67474
1.41018
1.3817
1.97845
2.17684
2.7797
3.33493
3.88201
4.42683
4.90424
5.29054
5.57373
5.75744
5.85774
5.89462
5.88172
5.79922
5.60896
5.26227
4.80207
4.30105
3.82761
3.4159
3.07534
2.80132
2.58818
2.43314
2.31411
2.19926
2.03985
1.81516
1.52665
1.43783
1.99178
2.14259
2.77343
3.29057
3.77481
4.27031
4.73596
5.12556
5.42305
5.62678
5.74987
5.81025
5.8217
5.7575
5.58223
5.25363
4.81493
4.33445
3.87846
3.48061
3.15173
2.88941
2.68821
2.54725
2.44319
2.34103
2.18885
1.96443
1.65705
1.51339
1.99913
2.07415
2.76383
3.26062
3.69541
4.13482
4.57933
4.96762
5.27527
5.4969
5.64122
5.72316
5.75588
5.71036
5.55056
5.2413
4.82522
4.36639
3.92873
3.54553
3.22932
2.97964
2.79154
2.66673
2.58048
2.49374
2.35049
2.1259
1.80209
1.60327
2.00086
1.97149
2.7436
3.23652
3.63423
4.0262
4.43641
4.81904
5.13352
5.37078
5.53537
5.63819
5.6906
5.66405
5.52114
5.23264
4.84037
4.40361
3.98471
3.61626
3.31318
3.07654
2.90271
2.79618
2.73049
2.66212
2.52943
2.30337
1.96221
1.70396
1.99927
1.86237
2.70246
3.21111
3.58379
3.93787
4.31006
4.68274
5.00245
5.25337
5.43781
5.56197
5.63461
5.62787
5.5039
5.23865
4.87076
4.45687
4.0559
3.70154
3.41118
3.18735
3.02896
2.94269
2.90018
2.85311
2.73229
2.5021
2.13884
1.81688
2.01194
1.74268
2.6266
3.17985
3.53851
3.86547
4.20717
4.56417
4.88699
5.15196
5.35742
5.50495
5.60118
5.61544
5.51419
5.27371
4.93154
4.54067
4.15684
3.81516
3.53548
3.32423
3.18288
3.11769
3.10075
3.07743
2.96886
2.73016
2.33783
1.94479
2.03898
1.66457
2.51061
3.1392
3.4956
3.80585
4.12678
4.46699
4.79749
5.0788
5.30981
5.48294
5.60715
5.6483
5.57347
5.36206
5.04856
4.68001
4.31173
3.98001
3.70782
3.50764
3.38366
3.34083
3.35075
3.35221
3.25419
2.9989
2.56569
2.08734
2.08434
1.68905
2.36705
3.08434
3.45413
3.75846
4.06996
4.40019
4.73984
5.04265
5.3028
5.52282
5.6867
5.76243
5.71952
5.54446
5.26372
4.91801
4.56276
4.23722
3.96926
3.77594
3.66815
3.64869
3.68399
3.70607
3.61209
3.32504
2.82731
2.25595
2.14475
1.87117
2.24183
3.0134
3.4156
3.72639
4.0409
4.37407
4.72906
5.08043
5.40039
5.67538
5.89273
6.02036
6.02297
5.89584
5.65691
5.33577
4.99152
4.66906
4.40015
4.21166
4.11265
4.11037
4.16178
4.19188
4.08305
3.73594
3.13813
2.45037
2.2177
2.1516
2.18713
2.93616
3.38717
3.71838
4.06347
4.44587
4.86545
5.28119
5.67595
6.0327
6.33437
6.54396
6.62487
6.56707
6.3911
6.10505
5.77524
5.45994
5.185
4.98357
4.87559
4.8675
4.90487
4.90792
4.74012
4.27926
3.52124
2.66221
2.31325
2.51568
2.24227
2.88218
3.3883
3.79923
4.23328
4.71219
5.24651
5.78494
6.3045
6.79963
7.24656
7.59983
7.82314
7.89535
7.83652
7.6338
7.35103
7.03405
6.72632
6.47292
6.30218
6.21686
6.16223
6.04596
5.72381
5.04664
4.0272
2.91748
2.45206
2.99965
2.44442
2.91164
3.53625
4.09569
4.69588
5.36406
6.12205
6.91653
7.69167
8.45745
9.17821
9.81078
10.3214
10.6872
10.8605
10.8379
10.6511
10.3261
9.92458
9.51533
9.13343
8.78809
8.44272
8.0066
7.32499
6.23363
4.7741
3.28787
2.69058
3.76513
2.90267
3.24001
4.08229
4.93922
5.88015
6.93646
8.13809
9.45377
10.7417
12.0505
13.3224
14.5037
15.5797
16.5225
17.1667
17.4794
17.4849
17.1309
16.5
15.7115
14.8172
13.8467
12.7967
11.6079
10.1609
8.29185
6.0679
3.95438
3.19592
5.39764
4.15388
4.49831
5.86193
7.39294
9.07637
10.9359
13.0165
15.3484
17.6154
19.9298
22.1742
24.2906
26.3267
28.2421
29.6762
30.54
30.8214
30.3442
29.2078
27.6226
25.6926
23.4775
21.0323
18.3756
15.4919
12.2656
8.76484
5.55111
4.52866
9.90481
8.3201
9.10134
11.717
14.6941
17.854
21.1742
24.7414
28.5896
32.2753
35.9408
39.4476
42.7362
45.821
48.6446
50.7286
51.8835
52.025
50.8975
48.7172
45.8226
42.4274
38.6295
34.4909
30.0402
25.3503
20.3855
15.192
10.255
8.64016
21.9858
21.124
23.2076
27.8146
32.7239
37.5378
42.2017
46.9838
51.7641
56.2863
60.5478
64.3613
67.5823
70.1118
71.5739
71.8727
70.8594
68.4083
65.0781
61.1725
57.0435
52.9782
49.1278
45.4415
41.8162
37.8395
33.3391
28.3179
22.9083
20.5957
35.7039
37.6538
41.0237
45.298
49.6709
54.0141
58.0751
61.9719
65.6281
68.8525
71.3704
73.0619
73.8001
73.2834
70.7537
67.1397
63.301
59.0796
54.8386
50.8678
47.3791
44.4307
42.1335
40.4497
39.3734
38.7577
38.1669
37.3805
36.411
36.2733
10.2239
14.9949
17.8729
20.0755
21.4931
22.1246
22.0731
21.4802
20.478
19.2014
17.7346
16.1921
14.5903
12.9819
11.1828
9.13344
7.02636
5.14465
3.63215
2.47253
1.56668
1.37241
1.24801
1.10276
0.980537
1.07066
1.51968
2.12765
2.49352
2.46466
6.13735
7.7364
8.96924
9.97186
10.6715
11.0568
11.1367
10.947
10.5383
9.96685
9.28195
8.524
7.7201
6.85807
5.89237
4.88001
3.93211
3.1314
2.47688
1.90547
1.3505
0.956406
0.744972
0.582305
0.511312
0.605847
0.719915
0.927705
1.26343
2.0235
5.40556
6.65898
7.62673
8.37397
8.89419
9.19612
9.28875
9.18514
8.90789
8.49179
7.97279
7.38529
6.75518
6.06415
5.26277
4.41466
3.63807
2.99491
2.46043
1.98818
1.49268
1.08166
0.825367
0.645991
0.553685
0.559464
0.615113
0.830525
1.26364
2.06702
4.95949
6.13547
7.04599
7.73663
8.22125
8.51814
8.63875
8.59507
8.39568
8.06499
7.63112
7.12766
6.58761
5.98112
5.24156
4.44339
3.70708
3.09651
2.59205
2.14261
1.66686
1.25275
0.969144
0.768605
0.647006
0.595547
0.619805
0.835172
1.3207
2.11405
4.55234
5.67379
6.59512
7.29338
7.79651
8.1239
8.2862
8.29924
8.16442
7.89856
7.52371
7.09512
6.62153
6.06307
5.3556
4.57707
3.85118
3.24472
2.7453
2.30402
1.84111
1.42812
1.12499
0.904779
0.756986
0.663747
0.651371
0.847286
1.37372
2.14639
4.14133
5.21862
6.16032
6.89237
7.43603
7.81025
8.02323
8.09108
8.01736
7.80874
7.49453
7.12404
6.69923
6.17796
5.49111
4.72407
4.00213
3.39423
2.89444
2.45733
2.00798
1.6004
1.28368
1.04492
0.875079
0.75256
0.702682
0.865901
1.41046
2.16366
3.73468
4.77059
5.72852
6.49896
7.09097
7.51762
7.78483
7.90641
7.89161
7.73864
7.48444
7.15938
6.77929
6.28711
5.61637
4.85985
4.14222
3.5335
3.03323
2.59973
2.16565
1.76769
1.44271
1.18752
0.998046
0.854962
0.774796
0.894933
1.43151
2.16994
3.35013
4.34568
5.30901
6.11065
6.75003
7.22841
7.54939
7.72357
7.76325
7.66608
7.46654
7.18575
6.84518
6.37748
5.72212
4.97817
4.26746
3.66035
3.16091
2.73187
2.31426
1.92921
1.60105
1.33262
1.12567
0.964679
0.858543
0.935976
1.44062
2.16768
3.00397
3.95991
4.91528
5.73677
6.4138
6.93972
7.31088
7.53522
7.62432
7.58178
7.42918
7.19806
6.89068
6.44577
5.80738
5.07927
4.37864
3.77581
3.279
2.85569
2.45496
2.08497
1.75856
1.4809
1.25861
1.08133
0.951382
0.98686
1.44054
2.15942
2.71357
3.62423
4.55924
5.38881
6.08814
6.6527
7.06924
7.33975
7.47408
7.48254
7.37782
7.19588
6.9173
6.49324
5.87473
5.16598
4.4783
3.88222
3.38979
2.97362
2.58976
2.23624
1.91608
1.6331
1.39776
1.20512
1.05272
1.04658
1.43768
2.14962
2.49973
3.34669
4.24645
5.06772
5.77902
6.37152
6.8264
7.13849
7.31502
7.36848
7.31204
7.17003
6.92789
6.52314
5.92847
5.24227
4.56987
3.9825
3.49599
3.0884
2.72112
2.38571
2.07547
1.79072
1.54424
1.33679
1.16399
1.1139
1.44263
2.14162
2.34543
3.13628
3.98044
4.77981
5.49305
6.1008
6.58556
6.93396
7.14909
7.24305
7.23304
7.13058
6.92479
6.54258
5.97396
5.31272
4.65733
4.08016
3.60074
3.20295
2.85189
2.53666
2.23939
1.95619
1.70025
1.47788
1.28509
1.19018
1.45817
2.13903
2.2318
2.98084
3.76668
4.52579
5.23165
5.84434
6.3505
6.72933
6.97936
7.111
7.1433
7.08142
6.90735
6.55623
6.01695
5.38254
4.74534
4.17941
3.70795
3.3208
2.98592
2.69312
2.41148
2.13286
1.86895
1.63096
1.417
1.28092
1.48832
2.14326
2.14283
2.86696
3.60155
4.30925
4.99413
5.60677
6.12535
6.52853
6.80977
6.97691
7.04803
7.02739
6.88441
6.57032
6.06395
5.45795
4.83976
4.28574
3.82285
3.44666
3.12891
2.86057
2.59671
2.32539
2.05473
1.79965
1.56164
1.38517
1.53519
2.15393
2.06319
2.78229
3.47543
4.13409
4.78404
5.39213
5.91522
6.33631
6.64518
6.84613
6.95481
6.9748
6.86703
6.59195
6.12299
5.54693
4.94851
4.40672
3.9529
3.58705
3.29035
3.04686
2.80209
2.54018
2.26357
1.98899
1.7224
1.5008
1.59935
2.1708
1.98132
2.71665
3.3792
3.9947
4.6042
5.19868
5.72431
6.15898
6.49212
6.72593
6.87315
6.93415
6.871
6.6344
6.20524
5.66075
5.08305
4.55374
4.1091
3.75317
3.48197
3.26313
3.0376
2.78631
2.50399
2.20603
1.90392
1.6308
1.67795
2.19351
1.89433
2.66227
3.30543
3.88537
4.45807
5.03037
5.55824
6.0031
6.35981
6.62649
6.8153
6.92139
6.9032
6.71301
6.32668
5.81616
5.2607
4.74443
4.30782
3.96424
3.72128
3.52596
3.31804
3.07671
2.78788
2.46029
2.11194
1.78001
1.76856
2.22278
1.80969
2.6126
3.24854
3.80094
4.34221
4.89072
5.41825
5.87905
6.26091
6.56383
6.79521
6.95701
6.98936
6.85023
6.51146
6.0392
5.50879
5.00691
4.5777
4.25385
4.03733
3.86108
3.66601
3.43074
3.13117
2.76452
2.35379
1.95382
1.86639
2.26076
1.73408
2.56135
3.20452
3.73759
4.2543
4.78481
5.31024
5.78897
6.20254
6.54343
6.84391
7.06935
7.16379
7.07976
6.79789
6.37192
5.87208
5.38648
4.97143
4.67563
4.47707
4.30886
4.11708
3.8784
3.55821
3.13665
2.63961
2.15502
1.97899
2.309
1.71319
2.50712
3.17128
3.69319
4.1936
4.7151
5.24328
5.74456
6.19696
6.62697
7.00135
7.30251
7.47613
7.4598
7.24944
6.88468
6.42591
5.96746
5.58409
5.31186
5.11701
4.93659
4.72916
4.46769
4.10662
3.60389
2.98663
2.38664
2.11168
2.37016
1.76361
2.45716
3.14979
3.66756
4.1621
4.68585
5.23267
5.79612
6.34778
6.86263
7.33034
7.73109
8.00904
8.09151
7.97467
7.69985
7.30674
6.90538
6.56892
6.30346
6.08418
5.85862
5.59993
5.27812
4.83741
4.20925
3.4205
2.65537
2.27099
2.44934
1.94409
2.43316
3.13791
3.664
4.18017
4.75583
5.39518
6.06049
6.71478
7.34298
7.94347
8.48631
8.91198
9.14525
9.17443
9.0406
8.77537
8.47656
8.17823
7.88863
7.59683
7.27284
6.89775
6.44443
5.85253
5.02466
3.98417
2.97938
2.45861
2.55595
2.21581
2.46065
3.15589
3.74217
4.35715
5.04468
5.8108
6.63174
7.44828
8.24999
9.05246
9.8092
10.4615
10.9334
11.2252
11.3351
11.2823
11.1132
10.8358
10.4748
10.0439
9.52492
8.91263
8.19783
7.32796
6.18
4.7582
3.39961
2.69273
2.72064
2.60089
2.60794
3.29155
4.01973
4.80064
5.68207
6.66142
7.74036
8.84162
9.94182
11.0664
12.1617
13.1819
14.0547
14.8093
15.2895
15.5133
15.5134
15.2592
14.7638
14.0724
13.1885
12.1353
10.9341
9.56579
7.9067
5.90314
4.00986
3.04751
3.01254
3.18573
2.97898
3.71474
4.69312
5.78432
7.00974
8.37117
9.88271
11.4756
13.0699
14.7277
16.3831
17.9823
19.4688
20.9043
21.9456
22.5765
22.7993
22.5461
21.7945
20.6421
19.1254
17.3157
15.2931
13.0888
10.6032
7.75068
5.03892
3.68709
3.58513
4.3142
3.922
4.8523
6.31911
7.9913
9.84838
11.8824
14.1158
16.524
18.9044
21.3852
23.8773
26.3171
28.6607
31.0373
32.7978
33.8801
34.2719
33.8646
32.6027
30.6939
28.228
25.3266
22.1234
18.7101
15.0324
10.9986
7.07651
5.05339
4.86291
7.06033
6.54578
7.96562
10.3798
13.125
16.0682
19.1909
22.5172
26.1036
29.5683
33.1386
36.6802
40.1214
43.3907
46.671
48.8807
49.9931
49.7943
48.2163
45.7002
42.6195
39.1645
35.4006
31.3426
26.97
22.1978
16.9165
11.452
8.37448
7.98592
14.3324
13.9283
16.288
20.2639
24.6192
29.0351
33.4856
38.0382
42.7773
47.2825
51.7998
56.1448
60.2094
63.7649
66.7589
67.5101
66.3703
63.9199
60.6248
56.8085
52.8383
48.9241
45.0668
41.142
36.9503
32.2198
26.7374
20.6288
16.4466
15.7273
29.4019
30.0193
33.5936
39.0651
44.7429
50.1758
55.3103
60.3124
65.26
69.8732
74.2648
78.1716
81.2072
82.7311
81.9808
78.6139
74.3236
69.3626
64.3559
59.5929
55.3674
51.8048
48.8849
46.4197
44.1044
41.4932
38.1533
34.1205
30.8446
30.6554
39.5726
42.2355
46.5174
51.6678
57.0567
62.4425
67.6212
72.3243
76.6854
80.3497
83.1439
84.8317
84.9539
82.6266
77.93
71.2803
64.7286
58.3853
52.748
48.0393
44.4227
41.8413
40.2649
39.5673
39.5503
39.9351
40.1382
40.0321
39.9585
41.1742
13.752
19.8676
23.3559
25.9745
27.8274
28.7779
28.8745
28.245
27.0154
25.332
23.2796
20.9983
18.4882
15.8333
12.8178
9.64192
6.86157
4.97922
3.94608
3.17921
2.04865
0.314987
0.283861
1.09613
0.985723
1.34375
1.9148
2.57754
2.92628
3.26165
7.98149
9.84752
11.1384
12.1338
12.8911
13.3506
13.4938
13.3347
12.9052
12.2495
11.414
10.4367
9.35071
8.11567
6.72952
5.39719
4.3413
3.59782
2.98567
2.32901
1.51425
0.837702
0.454856
0.441104
0.498428
0.635224
0.820605
1.09992
1.5933
2.98403
7.19379
8.52054
9.48912
10.1917
10.6731
10.9555
11.0455
10.9411
10.647
10.1804
9.56953
8.84591
8.0352
7.08606
5.99727
4.96437
4.15299
3.54423
2.94993
2.27186
1.4631
0.871734
0.532396
0.466359
0.470305
0.539314
0.670869
0.960469
1.59573
3.00783
6.74498
7.9545
8.86178
9.4979
9.91465
10.1574
10.2462
10.1827
9.96112
9.58633
9.07597
8.46476
7.77334
6.95138
5.96862
5.02221
4.26072
3.66002
3.05605
2.34678
1.51787
0.942202
0.641633
0.556087
0.520672
0.549964
0.656799
0.963849
1.65153
2.99659
6.3235
7.47273
8.39517
9.04037
9.47139
9.73494
9.85384
9.83767
9.67609
9.36637
8.91799
8.38573
7.78978
7.0251
6.09089
5.17732
4.42328
3.80941
3.19478
2.49501
1.65555
1.07133
0.781999
0.669217
0.600018
0.590822
0.673872
0.977105
1.70194
2.95059
5.85929
6.97428
7.92564
8.61447
9.09743
9.41392
9.58373
9.62135
9.51886
9.26408
8.87653
8.4137
7.86549
7.14124
6.23586
5.34152
4.58879
3.9643
3.34963
2.66372
1.84537
1.2442
0.946116
0.798734
0.699842
0.653804
0.708803
0.994644
1.73984
2.88802
5.35305
6.445
7.42573
8.1756
8.72737
9.11274
9.34585
9.44138
9.39974
9.19972
8.87535
8.45787
7.95179
7.2535
6.37057
5.49519
4.74699
4.11839
3.51315
2.84751
2.06812
1.45007
1.12774
0.942841
0.813221
0.734861
0.760324
1.01867
1.76255
2.82506
4.83201
5.90237
6.90721
7.72051
8.34823
8.80713
9.10857
9.26468
9.28345
9.14044
8.87409
8.49703
8.02631
7.34816
6.48897
5.63735
4.89877
4.27192
3.67973
3.04002
2.30813
1.68037
1.32165
1.09864
0.938169
0.829544
0.824128
1.05164
1.77396
2.76408
4.32724
5.37366
6.3967
7.26368
7.96202
8.49319
8.86261
9.08016
9.15549
9.0716
8.85815
8.52303
8.08226
7.42473
6.59497
5.77334
5.0488
4.42756
3.85065
3.23901
2.55321
1.92672
1.52688
1.26524
1.07235
0.935525
0.900847
1.09455
1.77946
2.70657
3.86511
4.88431
5.91952
6.82315
7.57829
8.17426
8.6077
8.88446
9.01296
8.98772
8.82085
8.53453
8.12381
7.48926
6.69674
5.91074
5.203
4.58929
4.02843
3.44605
2.80375
2.18498
1.7438
1.44217
1.21628
1.05054
0.987369
1.14773
1.78427
2.65627
3.47131
4.45344
5.48338
6.41384
7.20771
7.85646
8.34745
8.67913
8.85837
8.8872
8.77032
8.5339
8.15521
7.5508
6.80425
6.05781
5.36802
4.76228
4.21703
3.66641
3.06348
2.45171
1.97304
1.63173
1.372
1.17534
1.0819
1.21035
1.79319
2.61628
3.15446
4.09065
5.10038
6.03952
6.85987
7.54751
8.08677
8.46814
8.69552
8.77381
8.7103
8.51984
8.18269
7.62018
6.9281
6.22317
5.55118
4.95335
4.42208
3.90586
3.33893
2.73167
2.22036
1.83934
1.54322
1.31275
1.18499
1.2827
1.80925
2.58812
2.89839
3.79418
4.77201
5.70369
6.54338
7.2556
7.8325
8.25737
8.53002
8.65485
8.6463
8.5033
8.21513
7.70981
7.07986
6.41619
5.76109
5.17137
4.65181
4.1731
3.63846
3.03383
2.49352
2.07223
1.73577
1.46639
1.29923
1.36564
1.83454
2.57262
2.68858
3.5538
4.4983
5.40883
6.25428
6.98961
7.59282
8.0544
8.36911
8.54041
8.58654
8.50212
8.26704
7.83383
7.2715
6.64788
6.00881
5.42814
4.92008
4.4812
3.97356
3.36979
2.80263
2.34
1.95772
1.64083
1.42673
1.45894
1.87038
2.57101
2.51506
3.36054
4.27371
5.15941
5.99705
6.74906
7.37659
7.8687
8.22264
8.44162
8.54428
8.52174
8.35827
8.00851
7.51702
6.93273
6.30993
5.73897
5.25034
4.84912
4.35962
3.75449
3.16122
2.65525
2.22015
1.84387
1.57062
1.56115
1.91725
2.57788
2.36509
3.20436
4.09246
4.95223
5.77546
6.53574
7.18885
7.70978
8.10337
8.37295
8.5374
8.58968
8.50946
8.2529
7.83536
7.2916
6.68754
6.12813
5.67927
5.30408
4.81998
4.20863
3.58746
3.03458
2.53712
2.08537
1.73809
1.67701
1.97966
2.59174
2.2344
3.07782
3.94844
4.78513
5.59298
6.35466
7.02909
7.58484
8.0229
8.34419
8.58963
8.7307
8.75002
8.59152
8.2539
7.7556
7.17633
6.63793
6.24283
5.88235
5.38894
4.76187
4.10694
3.50034
2.92743
2.37869
1.93422
1.81071
2.058
2.61751
2.12454
2.97758
3.83723
4.65587
5.44983
6.21093
6.90519
7.49671
7.98319
8.38051
8.72998
8.97516
9.11804
9.06413
8.81415
8.37219
7.8288
7.34209
6.99927
6.63392
6.11564
5.45817
4.75686
4.084
3.41678
2.74197
2.16669
1.96455
2.15487
2.66238
2.04172
2.90218
3.75626
4.56251
5.34738
6.11198
6.82663
7.45806
8.02052
8.54046
9.00215
9.37205
9.66211
9.73259
9.58119
9.21592
8.73534
8.34454
8.03297
7.63529
7.07438
6.36416
5.5933
4.83163
4.04156
3.20011
2.44866
2.14193
2.27355
2.72667
1.99989
2.85141
3.70458
4.50478
5.28855
6.06355
6.80783
7.53075
8.22996
8.87078
9.46802
9.9941
10.4596
10.6876
10.6631
10.4047
10.0555
9.77159
9.46074
9.01076
8.38026
7.58226
6.7031
5.81287
4.85475
3.79051
2.80399
2.35272
2.41539
2.81433
2.01689
2.82862
3.68347
4.48522
5.28031
6.104
6.96921
7.83007
8.6624
9.45124
10.2277
10.9548
11.6378
12.0691
12.2362
12.1378
11.9965
11.7995
11.469
10.9504
10.212
9.27239
8.22312
7.13337
5.93576
4.57334
3.26655
2.61844
2.60167
2.93671
2.17062
2.86586
3.72187
4.55826
5.44062
6.40024
7.40376
8.42689
9.43025
10.4244
11.4436
12.4376
13.4021
14.1107
14.5795
14.755
14.811
14.6919
14.3519
13.7453
12.8435
11.6792
10.3676
8.94863
7.40359
5.6417
3.8965
2.98305
2.84863
3.11658
2.43935
3.01209
3.89638
4.85728
5.89909
7.02999
8.22644
9.47798
10.7477
12.0306
13.3845
14.7428
16.0862
17.1896
18.1372
18.6119
18.8683
18.8703
18.5304
17.8104
16.6661
15.1382
13.3617
11.4649
9.43414
7.14351
4.80904
3.51972
3.21548
3.43451
2.882
3.3717
4.35325
5.51238
6.81028
8.21114
9.70695
11.2968
12.9683
14.6733
16.4979
18.3579
20.2206
21.8661
23.3976
24.2146
24.7238
24.8776
24.4286
23.3575
21.7732
19.7517
17.4245
14.9294
12.2751
9.31582
6.21442
4.38494
3.84281
4.01518
3.6835
4.10396
5.32005
6.85444
8.56089
10.4049
12.3709
14.4607
16.7193
19.0101
21.471
23.9965
26.5242
28.8491
31.0954
32.208
32.9425
32.7402
31.7764
30.1841
28.0895
25.5616
22.6907
19.5774
16.2373
12.5227
8.49509
5.91288
5.02783
5.14388
5.3632
5.79091
7.43828
9.5998
11.9939
14.533
17.1927
19.9884
23.0301
26.08
29.3352
32.6662
35.9567
39.0067
41.9208
42.9698
42.9285
41.794
40.0147
37.7358
35.1178
32.1927
28.9745
25.4581
21.5976
17.2369
12.2959
8.79302
7.4177
7.47686
9.25364
9.79259
12.1496
15.3123
18.7309
22.2207
25.7661
29.4117
33.309
37.176
41.2445
45.3521
49.2875
52.7851
55.7287
54.9764
53.2521
50.6021
47.6762
44.5949
41.5382
38.4922
35.372
32.017
28.2423
23.7857
18.4391
14.1618
12.2418
12.3013
17.8881
18.7383
21.9876
26.3904
30.9581
35.3996
39.7201
44.0371
48.5107
52.9054
57.4348
61.8696
65.8278
68.7119
69.5168
65.4103
61.0663
56.3947
52.1632
48.3638
45.1211
42.3724
39.9523
37.567
34.9111
31.5174
27.0854
22.9854
20.9456
21.3201
30.7616
32.9785
37.274
42.5591
47.8719
52.8462
57.4296
61.8141
66.1832
70.3975
74.5562
78.2843
80.8747
80.7671
77.6735
69.498
62.2354
55.6439
50.3542
46.1604
43.0505
40.923
39.6052
38.8175
38.2111
37.2054
35.3691
33.2661
32.3953
33.6841
37.0705
40.2007
44.7741
50.1543
55.8067
61.4578
66.6786
71.2743
75.4393
79.1256
82.2144
84.171
83.999
80.1588
73.2999
62.2978
53.4453
46.044
40.5167
36.458
33.7703
32.2777
31.8316
32.2717
33.3678
34.6425
35.5756
36.273
37.3912
39.7855
17.8101
24.9493
28.9725
31.8948
33.9748
35.1676
35.3817
34.7053
33.244
31.1407
28.4646
25.3739
21.8446
17.988
13.6359
9.66644
7.29155
7.47148
8.36662
7.44897
5.05709
2.61608
1.27725
1.14708
1.1302
1.59279
2.26261
2.98569
3.42378
3.93381
10.0793
12.1004
13.4481
14.4497
15.1858
15.6859
15.8704
15.7222
15.2611
14.5144
13.527
12.3211
10.9328
9.263
7.4596
6.00882
5.2528
5.1654
5.07201
4.54709
3.42008
2.07648
0.950675
0.530363
0.582434
0.724052
0.955425
1.30019
2.11944
3.61337
9.19473
10.5048
11.4377
12.1091
12.5446
12.8031
12.8822
12.7642
12.4438
11.9229
11.2244
10.3673
9.37568