/*--------------------------------*- C++ -*----------------------------------*\
| =========                 |                                                 |
| \\      /  F ield         | OpenFOAM: The Open Source CFD Toolbox           |
|  \\    /   O peration     | Version:  5.0                                   |
|   \\  /    A nd           | Web:      www.OpenFOAM.org                      |
|    \\/     M anipulation  |                                                 |
\*---------------------------------------------------------------------------*/
FoamFile
{
    version     2.0;
    format      ascii;
    class       volScalarField;
    location    "800/air";
    object      k;
}
// * * * * * * * * * * * * * * * * * * * * * * * * * * * * * * * * * * * * * //

dimensions      [0 2 -2 0 0 0 0];

internalField   nonuniform List<scalar> 
243000
(
0.0869387
0.0997182
0.106269
0.108922
0.108587
0.10603
0.101947
0.0969845
0.0916318
0.0863238
0.0813638
0.0771131
0.0738677
0.0718341
0.0703763
0.0686729
0.0662973
0.0633385
0.0600206
0.0565397
0.0530459
0.0497896
0.0466493
0.0429658
0.0380745
0.0312475
0.0263451
0.0339122
0.0400742
0.0376736
0.132171
0.155699
0.167656
0.172384
0.172466
0.169263
0.163779
0.156898
0.149305
0.141605
0.134183
0.127586
0.122099
0.117497
0.112723
0.1071
0.100762
0.0943376
0.0881836
0.0824356
0.077155
0.0725647
0.0685607
0.0641364
0.058468
0.0497254
0.0415114
0.0502324
0.0639398
0.0657536
0.155771
0.184899
0.201637
0.208461
0.209423
0.206225
0.200197
0.192424
0.183719
0.174805
0.166129
0.15834
0.151679
0.145764
0.13925
0.131421
0.122649
0.113924
0.105769
0.0983512
0.0916771
0.0858368
0.0806321
0.0753189
0.0690487
0.0601543
0.0505511
0.0544173
0.0735292
0.0805286
0.169406
0.203812
0.22438
0.233664
0.23611
0.233633
0.227879
0.220048
0.211056
0.201716
0.192533
0.184228
0.17699
0.170323
0.162642
0.153191
0.142502
0.131865
0.121955
0.113009
0.105009
0.0979537
0.0915244
0.0851465
0.0780876
0.0688926
0.0582917
0.0573461
0.0797047
0.0919338
0.177295
0.214808
0.239279
0.251157
0.255344
0.254006
0.249007
0.241642
0.232892
0.223645
0.214458
0.206087
0.19866
0.191607
0.183138
0.172488
0.160337
0.148168
0.136798
0.126534
0.117353
0.109195
0.101652
0.0941954
0.086308
0.0766936
0.0653572
0.0604295
0.0835242
0.100766
0.18126
0.220051
0.248124
0.262895
0.268924
0.268976
0.265026
0.258465
0.250311
0.241512
0.232668
0.224551
0.217217
0.210032
0.201048
0.189517
0.176284
0.162915
0.150361
0.138989
0.128791
0.119664
0.111145
0.102677
0.0939936
0.0838967
0.0719998
0.0643618
0.0852932
0.107782
0.182431
0.221501
0.251803
0.270071
0.27805
0.279681
0.276962
0.271423
0.264105
0.256005
0.247753
0.240122
0.233086
0.225963
0.216672
0.20452
0.190511
0.176225
0.16273
0.150448
0.139389
0.129427
0.120065
0.110687
0.101274
0.0906786
0.0783243
0.0685788
0.0860707
0.113183
0.181576
0.220397
0.252042
0.273096
0.283575
0.286915
0.285562
0.281193
0.27488
0.267656
0.260175
0.253199
0.246622
0.239704
0.230269
0.21772
0.203177
0.188223
0.174
0.160984
0.149209
0.138537
0.128454
0.118277
0.108213
0.0971398
0.0843934
0.0729776
0.0862765
0.11706
0.179289
0.217575
0.250051
0.272829
0.286044
0.291276
0.291388
0.288293
0.283107
0.276889
0.270308
0.264114
0.258112
0.251509
0.242058
0.229304
0.214426
0.199028
0.18426
0.170667
0.158309
0.147043
0.136349
0.125483
0.114853
0.103344
0.0902803
0.0774796
0.0860669
0.119557
0.175847
0.213399
0.246339
0.270483
0.285746
0.29313
0.294879
0.293134
0.289163
0.284043
0.278463
0.273141
0.267798
0.26158
0.252227
0.23943
0.224389
0.20874
0.193591
0.179561
0.166739
0.15499
0.143783
0.132338
0.121225
0.109333
0.0959537
0.0820401
0.0856827
0.12084
0.172209
0.208139
0.241236
0.266529
0.283494
0.292774
0.296341
0.296047
0.293357
0.289407
0.284896
0.280506
0.275872
0.270093
0.260936
0.248234
0.233186
0.217435
0.202068
0.187725
0.174553
0.162416
0.15079
0.13887
0.127356
0.115139
0.101447
0.0866971
0.085456
0.121156
0.16816
0.202551
0.235012
0.261237
0.279666
0.290826
0.296037
0.297313
0.295955
0.293221
0.28982
0.286399
0.282498
0.277197
0.268322
0.255835
0.240916
0.225195
0.209754
0.195216
0.181795
0.169362
0.157404
0.145106
0.133266
0.120791
0.106824
0.0916021
0.085661
0.120627
0.163538
0.196973
0.228093
0.254845
0.274606
0.287486
0.294405
0.297172
0.297182
0.295694
0.29342
0.290979
0.287817
0.283021
0.274504
0.262337
0.247669
0.232097
0.216698
0.202088
0.188509
0.175865
0.163655
0.151069
0.138975
0.126265
0.112098
0.0964805
0.0866594
0.119321
0.158201
0.191254
0.221527
0.247654
0.268518
0.282931
0.291618
0.295859
0.297245
0.297003
0.29585
0.294381
0.291957
0.287683
0.279586
0.267833
0.253524
0.238211
0.222953
0.208375
0.194735
0.181958
0.169572
0.156779
0.144499
0.131597
0.117266
0.101284
0.0890665
0.116974
0.151974
0.185249
0.215064
0.240492
0.261619
0.277419
0.287809
0.293546
0.296295
0.2973
0.297244
0.296724
0.295029
0.291286
0.283667
0.272409
0.258554
0.243598
0.228576
0.214117
0.20051
0.187683
0.17519
0.162263
0.149848
0.136822
0.12235
0.106071
0.0920939
0.114297
0.144718
0.178817
0.208565
0.233597
0.254205
0.271168
0.283107
0.290383
0.294466
0.296702
0.297716
0.298116
0.29713
0.293928
0.286836
0.276145
0.262831
0.248323
0.233623
0.219364
0.205866
0.193074
0.180544
0.167551
0.155068
0.141963
0.12737
0.110835
0.0954557
0.111847
0.136272
0.17181
0.201924
0.226851
0.247207
0.264364
0.277659
0.286501
0.291875
0.295311
0.297375
0.298647
0.29835
0.295699
0.289178
0.279121
0.266426
0.252449
0.23815
0.224168
0.210856
0.198176
0.185689
0.172679
0.160184
0.147043
0.132355
0.115591
0.0991109
0.109845
0.126155
0.164042
0.195066
0.220178
0.240463
0.257214
0.271643
0.282003
0.28863
0.293221
0.296303
0.298398
0.298769
0.296683
0.290775
0.281413
0.269414
0.256045
0.242224
0.22859
0.215535
0.203048
0.19068
0.177696
0.165233
0.152095
0.137335
0.120362
0.103002
0.108383
0.114452
0.155287
0.18794
0.213538
0.233911
0.250486
0.265254
0.276962
0.284832
0.290521
0.294568
0.29744
0.298462
0.296958
0.291707
0.2831
0.271868
0.259183
0.245911
0.232699
0.219976
0.207757
0.195583
0.182679
0.170263
0.157158
0.142348
0.125176
0.107167
0.107561
0.104208
0.145164
0.180498
0.206919
0.227526
0.244064
0.258606
0.271481
0.280573
0.287282
0.292237
0.295839
0.297491
0.296592
0.292042
0.284255
0.273861
0.261937
0.249292
0.236572
0.224249
0.212363
0.20046
0.187707
0.175329
0.162275
0.147427
0.130053
0.111338
0.107477
0.100892
0.13286
0.172715
0.200347
0.221308
0.237888
0.252059
0.265616
0.275893
0.283536
0.28935
0.293645
0.295896
0.295639
0.29184
0.284939
0.275457
0.264377
0.252438
0.240287
0.228424
0.216927
0.205359
0.192833
0.180489
0.167486
0.1526
0.135005
0.115608
0.108186
0.105692
0.121007
0.164574
0.193892
0.215287
0.231947
0.245893
0.259399
0.270764
0.279301
0.285902
0.290856
0.293688
0.294108
0.29112
0.285179
0.276693
0.266547
0.255405
0.243898
0.232556
0.221487
0.210296
0.198061
0.185777
0.17284
0.1579
0.140056
0.119966
0.109633
0.114852
0.114251
0.155739
0.187646
0.209503
0.226234
0.239997
0.252872
0.265186
0.274494
0.281791
0.287367
0.290787
0.291906
0.289801
0.284912
0.277534
0.268414
0.258166
0.247389
0.236626
0.22602
0.215223
0.20332
0.191197
0.178367
0.163365
0.145228
0.124422
0.111613
0.1252
0.113287
0.147294
0.181767
0.203995
0.220725
0.234366
0.246865
0.259127
0.268927
0.276768
0.282906
0.286913
0.288755
0.287595
0.283855
0.277647
0.269743
0.260484
0.250522
0.240409
0.230306
0.219927
0.208437
0.196766
0.184154
0.169103
0.150605
0.129037
0.114106
0.135769
0.117275
0.140641
0.176488
0.198896
0.21562
0.229218
0.241462
0.253384
0.262595
0.270609
0.277157
0.281675
0.284208
0.284026
0.28149
0.276606
0.269945
0.261861
0.252847
0.243483
0.233951
0.224152
0.2138
0.202876
0.190581
0.175505
0.156523
0.13406
0.117272
0.146475
0.123743
0.137057
0.172413
0.19476
0.211425
0.225005
0.2371
0.248874
0.257819
0.265559
0.272012
0.27676
0.279816
0.280694
0.279508
0.276259
0.27125
0.264743
0.257099
0.248773
0.240035
0.230948
0.221307
0.210833
0.198681
0.18337
0.163741
0.140063
0.121687
0.158561
0.132325
0.137656
0.170639
0.192711
0.209374
0.223108
0.235373
0.247452
0.256714
0.264739
0.271595
0.277041
0.281044
0.283234
0.283537
0.281956
0.278587
0.273573
0.267195
0.259836
0.251766
0.243103
0.233713
0.223251
0.210791
0.194789
0.173991
0.148582
0.128615
0.175952
0.147229
0.148155
0.17788
0.199756
0.216881
0.231296
0.244405
0.257534
0.267962
0.277097
0.285069
0.291855
0.297373
0.301191
0.303033
0.302963
0.300898
0.2969
0.291243
0.284312
0.276362
0.26751
0.257627
0.246389
0.232922
0.21561
0.192803
0.164707
0.143006
0.225427
0.19963
0.200556
0.22695
0.249227
0.267706
0.283221
0.297638
0.311835
0.323984
0.334756
0.343907
0.352209
0.359454
0.364465
0.367078
0.367471
0.365564
0.361393
0.35532
0.347825
0.339129
0.329351
0.317942
0.304991
0.289893
0.271395
0.24755
0.217606
0.194844
0.448282
0.440613
0.445199
0.462338
0.478118
0.491457
0.498538
0.50511
0.510806
0.516967
0.523277
0.527386
0.53302
0.539112
0.541894
0.542907
0.54234
0.540457
0.53705
0.532881
0.528481
0.524059
0.519374
0.510699
0.50147
0.491757
0.480978
0.467325
0.447692
0.433201
0.12313
0.150503
0.164652
0.172673
0.175294
0.173579
0.168679
0.161682
0.153451
0.14476
0.136082
0.127989
0.120663
0.114345
0.107889
0.100062
0.0906351
0.0802339
0.069583
0.059152
0.0493297
0.0416721
0.036551
0.0326968
0.0292415
0.0270385
0.0320345
0.0426629
0.0495898
0.0470466
0.194127
0.239682
0.263416
0.275594
0.277838
0.272883
0.26322
0.250723
0.236598
0.221754
0.206634
0.191796
0.177105
0.162143
0.145563
0.127817
0.11079
0.0959731
0.0836723
0.0736387
0.0651251
0.05887
0.0541835
0.0516352
0.0490497
0.0464635
0.052552
0.064926
0.0839759
0.0977206
0.230784
0.291756
0.326956
0.346807
0.353618
0.350567
0.341086
0.327409
0.311053
0.293218
0.274513
0.255678
0.236657
0.216834
0.194455
0.170389
0.147338
0.127773
0.112059
0.0997343
0.0896625
0.0820474
0.0761598
0.0718762
0.0667238
0.0599487
0.0592935
0.073164
0.100976
0.125404
0.2474
0.322831
0.365846
0.392427
0.404418
0.404607
0.397086
0.384204
0.367674
0.348882
0.328577
0.307662
0.286162
0.263363
0.237188
0.208735
0.18123
0.157902
0.139281
0.124838
0.113176
0.104074
0.0968858
0.0910226
0.0832816
0.072539
0.0657461
0.0774404
0.112739
0.145915
0.255206
0.335454
0.389409
0.421585
0.438685
0.442867
0.438023
0.426938
0.411355
0.392771
0.372069
0.350307
0.327549
0.302938
0.274104
0.242399
0.211676
0.185374
0.164359
0.148081
0.135005
0.124562
0.116209
0.109132
0.0992485
0.0851807
0.073161
0.0809551
0.121948
0.162981
0.255613
0.336859
0.399018
0.439328
0.461165
0.469678
0.467874
0.459141
0.445179
0.427552
0.407289
0.385541
0.36237
0.336753
0.305992
0.271908
0.238853
0.210224
0.187254
0.169407
0.155119
0.143566
0.134266
0.126283
0.114678
0.0980067
0.0817252
0.0851018
0.128311
0.176984
0.252847
0.333424
0.398986
0.446855
0.474923
0.487775
0.489285
0.483175
0.471247
0.455088
0.435845
0.414742
0.391756
0.365696
0.333605
0.297857
0.263135
0.232718
0.208166
0.188989
0.173668
0.161239
0.151222
0.142574
0.129616
0.110918
0.0912865
0.0902068
0.132161
0.187781
0.248291
0.327443
0.395295
0.44659
0.481536
0.499002
0.504126
0.500709
0.491063
0.476717
0.458905
0.438897
0.416534
0.390427
0.357519
0.320716
0.284819
0.253134
0.227297
0.207017
0.190835
0.177747
0.16723
0.158112
0.144119
0.123846
0.101547
0.0960364
0.133961
0.195574
0.242779
0.320032
0.389175
0.443157
0.481424
0.504931
0.513638
0.512989
0.505762
0.493448
0.47736
0.458763
0.437335
0.411465
0.378189
0.340846
0.304195
0.271668
0.244834
0.223667
0.206795
0.193245
0.182431
0.173009
0.158257
0.136787
0.112378
0.102114
0.134478
0.200756
0.236884
0.312026
0.381526
0.437427
0.478485
0.505151
0.518679
0.521013
0.516244
0.506093
0.491924
0.474936
0.454675
0.429228
0.395999
0.358544
0.321509
0.288495
0.26094
0.239088
0.221701
0.20788
0.196961
0.187388
0.172117
0.149742
0.123634
0.108478
0.134261
0.203799
0.230872
0.304103
0.373057
0.430084
0.473376
0.502776
0.5196
0.525497
0.523233
0.51532
0.503168
0.487921
0.468945
0.444129
0.411287
0.374057
0.336982
0.303751
0.275779
0.253417
0.235696
0.221774
0.210944
0.201375
0.185794
0.162738
0.135255
0.115663
0.134396
0.20523
0.224125
0.296716
0.364387
0.421671
0.466623
0.498408
0.517899
0.527032
0.527334
0.521685
0.511592
0.498156
0.480504
0.456527
0.424365
0.387651
0.350822
0.317607
0.289473
0.266785
0.248899
0.235029
0.224474
0.215079
0.199388
0.175826
0.147245
0.123655
0.135353
0.205602
0.216227
0.28899
0.35602
0.41268
0.458656
0.492468
0.514399
0.526032
0.529077
0.525671
0.517628
0.506012
0.48972
0.466767
0.435525
0.399577
0.363231
0.330233
0.302147
0.279314
0.261426
0.247743
0.237642
0.228609
0.21301
0.189082
0.159528
0.132274
0.13757
0.205268
0.206871
0.280683
0.347503
0.403538
0.44989
0.485312
0.509451
0.523479
0.528906
0.527715
0.521666
0.511819
0.496963
0.475187
0.445057
0.410082
0.374414
0.341809
0.313927
0.291137
0.273392
0.260016
0.250544
0.242076
0.226785
0.202617
0.171995
0.141683
0.141403
0.204607
0.195928
0.271662
0.33872
0.394544
0.440722
0.477298
0.503364
0.519524
0.527197
0.528264
0.524073
0.515966
0.502599
0.482126
0.453266
0.419428
0.3846
0.352531
0.324971
0.302404
0.284932
0.27197
0.263293
0.255605
0.240854
0.216587
0.185021
0.15224
0.146718
0.203859
0.183601
0.261959
0.329648
0.385393
0.431451
0.468782
0.496455
0.514522
0.524315
0.527543
0.525216
0.518848
0.507007
0.487942
0.460479
0.427914
0.394055
0.362641
0.335502
0.313282
0.296199
0.283761
0.276033
0.269345
0.255381
0.231206
0.198786
0.16395
0.153291
0.203136
0.170632
0.25181
0.320355
0.376117
0.422141
0.460063
0.489068
0.508818
0.52062
0.525915
0.525615
0.520888
0.510606
0.493041
0.46708
0.435898
0.40311
0.372449
0.3458
0.324002
0.307401
0.295599
0.288955
0.283474
0.270553
0.246672
0.213441
0.176724
0.160453
0.202544
0.159
0.241023
0.310823
0.366808
0.412939
0.451355
0.48155
0.50281
0.516505
0.523851
0.525605
0.52255
0.513878
0.497898
0.473538
0.443837
0.412242
0.382371
0.35625
0.334897
0.318831
0.30779
0.302314
0.298222
0.286593
0.263204
0.229178
0.190595
0.168334
0.20327
0.148904
0.229145
0.301188
0.357555
0.404012
0.442916
0.474233
0.496997
0.512468
0.521915
0.525672
0.524402
0.517416
0.503117
0.480469
0.452332
0.422009
0.392971
0.367385
0.346444
0.330918
0.320817
0.316462
0.313888
0.303786
0.281059
0.24629
0.205533
0.177726
0.205126
0.143237
0.21627
0.291584
0.348531
0.395485
0.435046
0.467439
0.491815
0.509197
0.52068
0.526616
0.5272
0.522002
0.509511
0.488713
0.462293
0.433269
0.40508
0.379996
0.359368
0.344353
0.335226
0.331929
0.330932
0.322515
0.300542
0.264835
0.221721
0.188421
0.208311
0.144789
0.203645
0.281997
0.339932
0.387552
0.428035
0.461652
0.487661
0.506994
0.520463
0.529322
0.532118
0.528715
0.518243
0.4995
0.474953
0.447318
0.419982
0.395306
0.374945
0.360321
0.352025
0.349736
0.350114
0.343359
0.322068
0.285068
0.238867
0.200314
0.213028
0.157559
0.19409
0.27256
0.331993
0.380497
0.422178
0.457248
0.485239
0.506477
0.523641
0.535315
0.540704
0.53935
0.531123
0.514797
0.492419
0.466318
0.439852
0.415501
0.395412
0.381174
0.373272
0.371688
0.372844
0.367288
0.346297
0.307387
0.25725
0.212912
0.21912
0.176079
0.190077
0.26399
0.325076
0.374765
0.417976
0.454943
0.48611
0.511748
0.532154
0.546958
0.555548
0.55697
0.551359
0.538101
0.518546
0.494354
0.46879
0.445332
0.425488
0.411027
0.402918
0.401124
0.401848
0.396179
0.374497
0.33253
0.277097
0.225852
0.226147
0.198742
0.192062
0.25776
0.319884
0.371162
0.416393
0.457229
0.495337
0.526057
0.550159
0.568843
0.581664
0.587254
0.585426
0.576347
0.561189
0.540048
0.516819
0.494124
0.473994
0.458433
0.448651
0.444446
0.442243
0.433827
0.409315
0.362185
0.299624
0.240164
0.234298
0.224755
0.203782
0.255506
0.317866
0.372282
0.423909
0.472191
0.517043
0.555107
0.585728
0.610752
0.629801
0.641903
0.646786
0.644591
0.635848
0.620199
0.600577
0.578899
0.557574
0.538983
0.524292
0.513371
0.503451
0.487892
0.456496
0.400405
0.327763
0.257808
0.245966
0.259217
0.225481
0.264997
0.32997
0.392489
0.451805
0.509112
0.563399
0.612246
0.652887
0.688363
0.71777
0.740023
0.755568
0.764118
0.764699
0.757174
0.742829
0.72233
0.698349
0.673921
0.65014
0.627056
0.602952
0.572824
0.527843
0.457025
0.369074
0.284404
0.267386
0.317929
0.272206
0.304774
0.377675
0.45279
0.524928
0.595131
0.663337
0.728227
0.78343
0.833434
0.876291
0.911246
0.940306
0.962954
0.975299
0.977738
0.969768
0.9501
0.921601
0.888056
0.850846
0.809965
0.764547
0.71148
0.644543
0.552912
0.443615
0.337406
0.312788
0.447648
0.396012
0.42825
0.518113
0.611329
0.701019
0.786905
0.870198
0.949734
1.01793
1.07974
1.13341
1.17858
1.2166
1.24713
1.2657
1.27154
1.26278
1.23827
1.20151
1.15693
1.10687
1.05136
0.98928
0.917835
0.8322
0.723928
0.596312
0.466569
0.428992
0.72027
0.690531
0.732584
0.832854
0.93349
1.02644
1.11136
1.19264
1.26728
1.33161
1.3882
1.43478
1.47028
1.49443
1.50342
1.49885
1.47982
1.44566
1.40199
1.35215
1.30008
1.2489
1.19978
1.15085
1.09919
1.03637
0.955729
0.856217
0.744568
0.70062
0.998051
1.01787
1.06572
1.13151
1.19732
1.26092
1.31848
1.372
1.41935
1.45831
1.48796
1.50691
1.51431
1.50639
1.47421
1.42958
1.38206
1.33012
1.27775
1.22851
1.185
1.14806
1.11921
1.09753
1.08297
1.07271
1.0599
1.04007
1.01465
1.00924
0.152591
0.192142
0.210822
0.2225
0.227647
0.227143
0.222255
0.214223
0.204027
0.192563
0.180317
0.16795
0.155452
0.143059
0.129201
0.112934
0.0951148
0.077715
0.0621348
0.048606
0.0363203
0.0318441
0.0295515
0.0290166
0.0279684
0.0306207
0.0395702
0.05082
0.0583085
0.0591604
0.244313
0.308878
0.343422
0.361097
0.365811
0.361001
0.349872
0.334465
0.316116
0.295804
0.273941
0.251111
0.226731
0.200246
0.171802
0.145578
0.124127
0.108541
0.096589
0.0856242
0.071835
0.0630588
0.0602144
0.0498658
0.0426549
0.0452763
0.0590509
0.0789836
0.105379
0.139108
0.294618
0.375576
0.424489
0.451475
0.461472
0.458849
0.448003
0.431241
0.410096
0.385739
0.358819
0.330093
0.298956
0.264753
0.227728
0.193576
0.166317
0.147144
0.132974
0.120106
0.103763
0.0917749
0.0851591
0.0713987
0.0589227
0.0559654
0.0667434
0.0914727
0.130181
0.177364
0.319069
0.415776
0.473881
0.508621
0.524433
0.525494
0.516852
0.501001
0.479567
0.453801
0.424543
0.392624
0.357541
0.318561
0.27586
0.236304
0.204462
0.181836
0.165213
0.150499
0.132382
0.117701
0.107485
0.0912376
0.074879
0.0659777
0.0723646
0.0992676
0.14799
0.204394
0.331297
0.432459
0.503551
0.544851
0.566668
0.572477
0.566908
0.553098
0.532656
0.506905
0.47683
0.443295
0.405914
0.363865
0.317187
0.273786
0.238523
0.21294
0.19411
0.17785
0.158628
0.141994
0.12882
0.110557
0.0910776
0.0768899
0.0780587
0.104503
0.161626
0.225863
0.332382
0.43385
0.514029
0.566284
0.594122
0.605373
0.603474
0.592407
0.573762
0.548936
0.519005
0.484953
0.44641
0.402345
0.352881
0.306796
0.269021
0.24101
0.220306
0.202776
0.183008
0.165061
0.149607
0.129501
0.107494
0.0890657
0.0846721
0.108657
0.171469
0.242767
0.328196
0.428843
0.512552
0.573701
0.610464
0.627407
0.629773
0.621853
0.605554
0.582281
0.553217
0.519451
0.480576
0.435235
0.383976
0.336134
0.296568
0.266581
0.244296
0.225728
0.205799
0.187104
0.169994
0.148233
0.124056
0.102409
0.0930749
0.112775
0.178299
0.255751
0.320995
0.420278
0.506585
0.572035
0.617089
0.640747
0.647989
0.643415
0.629835
0.608574
0.580941
0.548061
0.509518
0.463452
0.411299
0.36247
0.321679
0.290119
0.266475
0.247066
0.227222
0.208255
0.190017
0.166845
0.140802
0.116374
0.10266
0.117604
0.182831
0.265382
0.311946
0.409624
0.497572
0.566552
0.615957
0.647457
0.659586
0.658554
0.647939
0.629037
0.603268
0.571767
0.533998
0.487821
0.43555
0.386372
0.344778
0.312026
0.287195
0.267098
0.247485
0.228623
0.209694
0.185408
0.157769
0.130911
0.11318
0.123247
0.185601
0.272298
0.302118
0.397946
0.486655
0.558296
0.611483
0.646949
0.665602
0.668458
0.660935
0.644642
0.62107
0.591365
0.554666
0.509039
0.457345
0.408339
0.366271
0.332621
0.306749
0.286095
0.266793
0.248366
0.229058
0.203956
0.174981
0.145976
0.124519
0.129751
0.187476
0.277075
0.292838
0.386134
0.474751
0.548202
0.604489
0.643565
0.66636
0.674014
0.669708
0.65621
0.635092
0.607489
0.572176
0.527747
0.47723
0.428806
0.386523
0.352183
0.325402
0.304302
0.285358
0.267621
0.248176
0.222548
0.192466
0.161553
0.136657
0.137217
0.189293
0.280294
0.283558
0.375024
0.462696
0.537052
0.595718
0.637928
0.664184
0.676033
0.67503
0.664459
0.646005
0.620668
0.587182
0.544542
0.495698
0.448165
0.405859
0.370983
0.3434
0.321948
0.303389
0.286507
0.26716
0.241277
0.210301
0.177673
0.149716
0.145575
0.191648
0.282521
0.273532
0.364388
0.451185
0.525523
0.585798
0.630627
0.659996
0.675041
0.677622
0.670044
0.654346
0.631524
0.600313
0.559987
0.513201
0.46678
0.424592
0.389286
0.361004
0.339257
0.32113
0.305203
0.286154
0.260271
0.228611
0.194419
0.163717
0.154695
0.195008
0.284332
0.262327
0.353855
0.440355
0.514188
0.575322
0.622209
0.654313
0.672356
0.678117
0.673539
0.660744
0.640693
0.61218
0.57461
0.530161
0.485008
0.443046
0.407381
0.378504
0.356496
0.338889
0.323941
0.305337
0.279696
0.247561
0.211911
0.178616
0.164975
0.199662
0.286184
0.249752
0.343172
0.430051
0.503574
0.564836
0.613213
0.647642
0.668398
0.677106
0.675581
0.665845
0.648815
0.623388
0.588928
0.546999
0.503229
0.46159
0.425624
0.396237
0.374002
0.357099
0.34302
0.324946
0.299758
0.267356
0.230318
0.194522
0.176608
0.205742
0.288374
0.23603
0.332276
0.420116
0.493683
0.554757
0.604129
0.640492
0.663724
0.675237
0.676835
0.670314
0.656562
0.634554
0.603461
0.564176
0.521894
0.480687
0.444492
0.414649
0.392233
0.376182
0.362812
0.345283
0.320724
0.288268
0.249857
0.211566
0.189518
0.213217
0.291079
0.221992
0.32128
0.410488
0.484471
0.545482
0.595372
0.633345
0.658881
0.673262
0.678044
0.674885
0.664655
0.646342
0.618795
0.582256
0.541591
0.500959
0.464626
0.434367
0.411889
0.396676
0.383809
0.366763
0.342926
0.310613
0.270766
0.229894
0.203673
0.222044
0.294438
0.209087
0.310353
0.401208
0.475887
0.537028
0.587286
0.626647
0.654379
0.671598
0.679986
0.680492
0.673923
0.659498
0.635644
0.601992
0.563138
0.523287
0.486943
0.456364
0.434132
0.41944
0.406707
0.389963
0.366821
0.334729
0.293303
0.249643
0.218875
0.232196
0.298629
0.198497
0.299656
0.392403
0.467923
0.529403
0.580206
0.620835
0.650739
0.670761
0.683476
0.688254
0.685523
0.674973
0.654979
0.624459
0.587734
0.54898
0.512791
0.482232
0.460551
0.445739
0.432487
0.415742
0.393085
0.361121
0.317843
0.270883
0.235186
0.243587
0.303669
0.193495
0.289594
0.384304
0.460624
0.522626
0.574332
0.616379
0.648557
0.671919
0.689812
0.699283
0.700838
0.69427
0.6782
0.651266
0.617193
0.580042
0.544393
0.514665
0.493132
0.477415
0.462762
0.445429
0.422759
0.390545
0.344913
0.293831
0.252593
0.256015
0.309516
0.19394
0.281054
0.377324
0.454042
0.516794
0.569817
0.613873
0.648466
0.678183
0.700743
0.71516
0.721781
0.719549
0.707536
0.684931
0.654376
0.619644
0.585582
0.557174
0.534942
0.517161
0.500096
0.481179
0.457542
0.424241
0.375374
0.319043
0.271093
0.269033
0.316141
0.20397
0.275752
0.371173
0.448315
0.512284
0.567159
0.613811
0.655671
0.69104
0.718603
0.738563
0.751026
0.754106
0.746768
0.72956
0.703983
0.673175
0.642287
0.61451
0.590435
0.569185
0.548544
0.5265
0.500227
0.464296
0.410746
0.34744
0.291343
0.282521
0.323513
0.222069
0.274329
0.365996
0.44386
0.509747
0.568056
0.622493
0.672607
0.714348
0.747328
0.77394
0.793243
0.803286
0.802272
0.792067
0.773861
0.748818
0.721285
0.693249
0.666226
0.640465
0.614511
0.586927
0.555357
0.514296
0.453905
0.3809
0.314133
0.296901
0.332054
0.243853
0.277706
0.362972
0.442189
0.513316
0.58144
0.64506
0.703653
0.753314
0.794157
0.829125
0.856848
0.875912
0.884369
0.883899
0.873983
0.855424
0.831177
0.803025
0.772448
0.740667
0.707014
0.670745
0.630054
0.58004
0.509882
0.423401
0.342027
0.314699
0.343659
0.273019
0.292847
0.368764
0.45428
0.536788
0.61491
0.688687
0.757697
0.818078
0.869426
0.915497
0.954446
0.984565
1.00442
1.01561
1.01506
1.00429
0.983799
0.95518
0.919992
0.88043
0.836452
0.788012
0.734131
0.670663
0.586725
0.482934
0.381611
0.341251
0.363333
0.321932
0.327771
0.403065
0.497189
0.591645
0.683615
0.770162
0.852116
0.926872
0.991349
1.05062
1.10236
1.14466
1.17661
1.20056
1.20879
1.20393
1.18476
1.15318
1.11102
1.06195
1.00655
0.944981
0.876473
0.797508
0.69807
0.574645
0.448684
0.389562
0.406358
0.418284
0.411319
0.490457
0.599306
0.710975
0.818273
0.919676
1.01572
1.10557
1.18292
1.25437
1.31707
1.36909
1.40927
1.44037
1.44931
1.43986
1.41
1.36384
1.30806
1.24785
1.18502
1.11872
1.04608
0.961792
0.856103
0.720836
0.573175
0.490975
0.500399
0.622479
0.611843
0.693173
0.816577
0.942045
1.06026
1.1703
1.27334
1.36918
1.45155
1.52647
1.59085
1.64216
1.67709
1.69433
1.67776
1.63654
1.57986
1.5159
1.44925
1.38441
1.32366
1.26569
1.20609
1.13778
1.04956
0.931214
0.79235
0.698287
0.69911
0.95618
0.960055
1.03839
1.15726
1.27659
1.38682
1.48651
1.57779
1.66058
1.73132
1.79271
1.8411
1.86976
1.87045
1.83932
1.77252
1.69569
1.61316
1.53371
1.4613
1.3998
1.35039
1.31227
1.28106
1.24989
1.20773
1.14431
1.06371
1.00257
1.00929
1.16054
1.19459
1.26348
1.35059
1.44105
1.52999
1.6139
1.68821
1.75288
1.80477
1.84103
1.85937
1.85304
1.81066
1.7357
1.63387
1.53351
1.43735
1.3526
1.28289
1.23093
1.19619
1.17821
1.17397
1.18039
1.18926
1.18992
1.18357
1.17941
1.20256
0.185995
0.231829
0.252016
0.264212
0.270439
0.27067
0.265849
0.257128
0.245426
0.231645
0.216193
0.199753
0.182071
0.163359
0.141573
0.117149
0.0936573
0.0760174
0.0655793
0.0573738
0.0434097
0.0351016
0.0321488
0.0288377
0.028417
0.0356328
0.046206
0.0578501
0.064938
0.0714518
0.302185
0.377378
0.414727
0.434753
0.440107
0.434683
0.421856
0.403724
0.381585
0.35634
0.328187
0.297566
0.26342
0.225369
0.186785
0.157261
0.139602
0.132335
0.126157
0.112044
0.0820679
0.0596884
0.0500924
0.0441528
0.0418711
0.0502891
0.0688779
0.0938522
0.12788
0.173901
0.371516
0.462333
0.515594
0.545407
0.555306
0.551196
0.537961
0.517839
0.492116
0.461727
0.427036
0.388583
0.345238
0.296388
0.247082
0.21049
0.189495
0.180392
0.171341
0.152048
0.113887
0.0854619
0.0715314
0.0619959
0.0555336
0.061099
0.0798456
0.112374
0.162047
0.225607
0.410106
0.515342
0.579669
0.617335
0.632469
0.631287
0.619696
0.599992
0.573439
0.540899
0.502865
0.4599
0.410973
0.355403
0.299122
0.257531
0.232943
0.22075
0.208598
0.185834
0.143292
0.110818
0.0935589
0.0802437
0.0692874
0.0704899
0.0876349
0.125138
0.186806
0.260259
0.432646
0.544308
0.6208
0.664948
0.685896
0.688983
0.680135
0.662077
0.636056
0.602904
0.563217
0.517541
0.465012
0.404833
0.343846
0.298837
0.271174
0.256027
0.241251
0.216971
0.172284
0.137149
0.1167
0.0994714
0.0842487
0.080526
0.0947272
0.134764
0.206561
0.286669
0.441903
0.554622
0.641571
0.694701
0.721935
0.730599
0.72532
0.709773
0.685186
0.65242
0.612143
0.564988
0.510237
0.446646
0.382643
0.335459
0.305441
0.287749
0.271095
0.246076
0.202009
0.164572
0.140826
0.119678
0.100623
0.0917353
0.102368
0.142676
0.222075
0.307401
0.440021
0.552019
0.644071
0.709065
0.744451
0.759675
0.758688
0.746296
0.723826
0.692173
0.652136
0.604451
0.548423
0.482374
0.416823
0.3685
0.336772
0.316916
0.298974
0.273753
0.231937
0.192696
0.165506
0.140764
0.118007
0.104399
0.11118
0.14996
0.234205
0.323873
0.432927
0.543729
0.638842
0.709277
0.756708
0.778525
0.782643
0.773781
0.753948
0.72399
0.68489
0.637424
0.580786
0.513337
0.44754
0.398938
0.365993
0.344281
0.325302
0.300319
0.261483
0.22115
0.190306
0.162279
0.136235
0.118271
0.121079
0.15735
0.243782
0.336836
0.422077
0.531477
0.62908
0.704422
0.757592
0.789037
0.798866
0.793812
0.777
0.74923
0.711662
0.665103
0.608319
0.540694
0.475841
0.427639
0.393817
0.370441
0.350568
0.326035
0.290037
0.249373
0.215048
0.184007
0.154876
0.133074
0.132201
0.165241
0.251562
0.34696
0.408853
0.516865
0.616344
0.695881
0.754032
0.791841
0.808587
0.80768
0.794171
0.768995
0.733493
0.688339
0.632115
0.565557
0.502697
0.455373
0.420856
0.39591
0.375175
0.351218
0.317642
0.277012
0.239613
0.205712
0.173797
0.148649
0.14426
0.173807
0.258219
0.354984
0.395085
0.501303
0.601936
0.684812
0.74737
0.789784
0.813137
0.816567
0.806508
0.784259
0.751304
0.707941
0.653228
0.588997
0.528994
0.482821
0.447663
0.421146
0.399505
0.376282
0.344511
0.3038
0.263891
0.227394
0.192972
0.164804
0.156965
0.183137
0.264325
0.36158
0.381956
0.485938
0.586891
0.672201
0.738472
0.785058
0.812513
0.821346
0.81493
0.795927
0.765823
0.724889
0.672712
0.612021
0.555516
0.510577
0.47473
0.4466
0.423954
0.40152
0.370959
0.330033
0.288144
0.249268
0.21248
0.181552
0.170285
0.193264
0.270305
0.367264
0.368662
0.471153
0.572077
0.658914
0.728155
0.778393
0.809717
0.823133
0.820372
0.804799
0.777931
0.740171
0.691615
0.635549
0.582952
0.539168
0.502527
0.47273
0.448997
0.427212
0.397375
0.356177
0.312719
0.27164
0.232532
0.19896
0.184373
0.204202
0.276464
0.372429
0.354652
0.456788
0.557944
0.645705
0.717172
0.770512
0.80537
0.822467
0.823679
0.81174
0.788612
0.75481
0.710965
0.660385
0.611863
0.569074
0.531519
0.500049
0.475226
0.453815
0.424201
0.382732
0.338033
0.294917
0.253448
0.217131
0.199288
0.216024
0.283053
0.37736
0.33988
0.442836
0.544639
0.633217
0.706172
0.762073
0.800105
0.820743
0.825757
0.817721
0.798875
0.769848
0.731718
0.687212
0.642724
0.60077
0.562232
0.529141
0.503458
0.481943
0.451915
0.410224
0.364572
0.319587
0.275665
0.236339
0.215073
0.228849
0.290299
0.382268
0.324281
0.429259
0.532274
0.621633
0.695673
0.753642
0.794518
0.818565
0.827574
0.823776
0.809771
0.786305
0.754721
0.716614
0.676018
0.634812
0.595339
0.560771
0.534815
0.512351
0.481226
0.439269
0.39288
0.346196
0.299668
0.256893
0.231821
0.242703
0.298751
0.387182
0.308556
0.416215
0.520902
0.611156
0.686101
0.745701
0.789158
0.816537
0.830013
0.831111
0.822517
0.805275
0.780726
0.749157
0.712341
0.671929
0.631743
0.596086
0.57003
0.545868
0.513057
0.470627
0.423605
0.375353
0.326015
0.279197
0.249598
0.257468
0.308373
0.39263
0.293819
0.404142
0.510645
0.60191
0.677664
0.738667
0.784528
0.815235
0.833926
0.840983
0.838349
0.827946
0.810776
0.785496
0.752546
0.713161
0.672703
0.636905
0.610261
0.583424
0.548511
0.505295
0.457567
0.407783
0.355364
0.30376
0.268503
0.273153
0.319188
0.39924
0.281636
0.393562
0.501681
0.593946
0.670527
0.732982
0.781115
0.815123
0.840622
0.854362
0.858696
0.855622
0.84607
0.826763
0.797932
0.760075
0.720162
0.68537
0.656954
0.6264
0.589084
0.544641
0.495893
0.44443
0.38853
0.331215
0.288827
0.290067
0.331138
0.406764