/*--------------------------------*- C++ -*----------------------------------*\
| =========                 |                                                 |
| \\      /  F ield         | OpenFOAM: The Open Source CFD Toolbox           |
|  \\    /   O peration     | Version:  5.0                                   |
|   \\  /    A nd           | Web:      www.OpenFOAM.org                      |
|    \\/     M anipulation  |                                                 |
\*---------------------------------------------------------------------------*/
FoamFile
{
    version     2.0;
    format      ascii;
    class       volScalarField;
    location    "800/air";
    object      nut;
}
// * * * * * * * * * * * * * * * * * * * * * * * * * * * * * * * * * * * * * //

dimensions      [0 2 -1 0 0 0 0];

internalField   nonuniform List<scalar> 
243000
(
0.000154643
0.000159633
0.000158899
0.000155286
0.000149865
0.000143373
0.000136376
0.000129329
0.000122544
0.000116293
0.000110747
0.000106122
0.000102614
0.000100371
9.89499e-05
9.77653e-05
9.6478e-05
9.50921e-05
9.37127e-05
9.24244e-05
9.12874e-05
9.04728e-05
8.9891e-05
8.8832e-05
8.64197e-05
8.12617e-05
0.000359201
8.84715e-05
0.000101193
0.000101611
0.000675916
0.000734181
0.000762512
0.000773801
0.000774507
0.000767695
0.000755492
0.000739723
0.000721827
0.000703154
0.00068463
0.000667705
0.000653294
0.000641013
0.000628045
0.000612352
0.000594071
0.000574875
0.000555824
0.000537402
0.000519875
0.000504118
0.000490128
0.000474367
0.000453721
0.000420122
0.000383408
0.000411041
0.000468159
0.000474543
0.00073351
0.000799837
0.00083608
0.000850832
0.000853434
0.000847373
0.000835293
0.00081924
0.000800763
0.000781324
0.000761875
0.000743957
0.000728289
0.00071414
0.00069824
0.000678544
0.000655639
0.000631944
0.000608908
0.000587146
0.000566826
0.000548422
0.000531596
0.000514058
0.000492863
0.000461514
0.000422428
0.000429181
0.000501015
0.000525006
0.000764597
0.000839587
0.000881861
0.000900736
0.000906164
0.000901933
0.000891193
0.000876104
0.000858316
0.000839367
0.000820255
0.000802555
0.00078681
0.000772072
0.000754735
0.000732719
0.000706849
0.000680018
0.000653967
0.000629494
0.000606748
0.000585966
0.000566482
0.000546619
0.000524041
0.000493495
0.000453959
0.000442796
0.00052096
0.000561051
0.000781856
0.00086164
0.00091058
0.000933793
0.000942336
0.000940452
0.000931617
0.000918118
0.000901662
0.000883859
0.000865754
0.000848901
0.000833665
0.000818976
0.000800964
0.000777586
0.000749868
0.000720921
0.000692713
0.000666187
0.000641509
0.000618771
0.000597102
0.000574985
0.000550884
0.000520365
0.000480953
0.000457699
0.000532329
0.000587635
0.000790136
0.000871796
0.000927033
0.000955315
0.00096706
0.000967788
0.000961147
0.000949575
0.000934813
0.00091853
0.000901814
0.000886174
0.000871799
0.000857518
0.000839281
0.000815131
0.000786337
0.000756013
0.000726309
0.000698276
0.000672119
0.000647835
0.000624445
0.000600359
0.000574854
0.000544
0.000504791
0.000474247
0.000537828
0.000608119
0.000792267
0.000874386
0.000933689
0.000968199
0.000983315
0.000986884
0.000982583
0.000973122
0.000960265
0.000945731
0.000930638
0.000916443
0.000903145
0.000889505
0.00087134
0.000846833
0.000817502
0.000786342
0.000755651
0.00072655
0.00069929
0.00067381
0.000649089
0.00062337
0.000596675
0.000565372
0.000526355
0.000490785
0.000540866
0.000623444
0.000790081
0.00087198
0.000933947
0.000973475
0.000993013
0.000999582
0.000997755
0.000990516
0.000979696
0.000967056
0.000953732
0.000941122
0.000929058
0.000916211
0.000898321
0.000873781
0.000844285
0.000812717
0.000781427
0.000751612
0.000723561
0.000697182
0.00067144
0.000644418
0.000616759
0.00058503
0.000546188
0.000506931
0.000542299
0.000634201
0.000784786
0.000866161
0.000930094
0.000972877
0.000997262
0.00100716
0.00100791
0.00100298
0.000994287
0.000983636
0.000972174
0.000961247
0.000950512
0.000938559
0.000921082
0.000896769
0.000867385
0.000835761
0.000804182
0.000773934
0.000745349
0.00071832
0.000691817
0.000663787
0.000635384
0.000603322
0.000564746
0.0005227
0.000542372
0.000640944
0.000776953
0.00085759
0.000923002
0.000968574
0.000996673
0.00101035
0.00101396
0.0010114
0.0010049
0.000996306
0.000986779
0.000977587
0.000968239
0.000957224
0.000940284
0.000916403
0.000887348
0.000855948
0.000824335
0.000793888
0.000764984
0.000737525
0.000710474
0.0006817
0.000652757
0.000620478
0.000582064
0.00053805
0.000541865
0.000644283
0.000768963
0.000846767
0.000913223
0.000961346
0.000992649
0.0010097
0.00101648
0.00101644
0.0010122
0.00100571
0.000998159
0.000990732
0.000982786
0.000972735
0.000956433
0.000933146
0.000904615
0.000873633
0.000842231
0.000811777
0.000782746
0.000755034
0.000727624
0.000698343
0.000669046
0.000636671
0.000598383
0.000553438
0.000542091
0.000645007
0.000759834
0.000835461
0.000901213
0.000951619
0.000985832
0.00100627
0.00101593
0.00101863
0.0010167
0.00101236
0.0010068
0.00100114
0.000994579
0.000985506
0.000969929
0.000947371
0.000919527
0.000889125
0.000858139
0.000827857
0.00079886
0.000771054
0.00074345
0.00071387
0.000684384
0.000652058
0.000613958
0.000569158
0.000543991
0.000643365
0.000749161
0.000823921
0.000887934
0.000939763
0.000976768
0.0010004
0.0010131
0.00101839
0.00101885
0.00101666
0.00101308
0.00100917
0.00100396
0.00099587
0.000981095
0.000959381
0.000932366
0.000902686
0.000872265
0.00084234
0.000813519
0.00078576
0.000758107
0.000728407
0.000698881
0.000666638
0.000628853
0.000584028
0.000548954
0.00063935
0.00073654
0.000811834
0.000875088
0.00092629
0.000965765
0.000992356
0.00100826
0.00101614
0.00101897
0.00101896
0.00101732
0.00101512
0.00101122
0.00100411
0.000990194
0.000969428
0.000943364
0.000914535
0.000884804
0.000855381
0.000826882
0.000799297
0.000771724
0.000742061
0.000712627
0.000680527
0.000643103
0.000598408
0.000559038
0.000631739
0.00072145
0.000798873
0.000862252
0.000912942
0.000953157
0.000982557
0.00100161
0.00101216
0.00101736
0.00101951
0.00101977
0.00101921
0.0010166
0.00101045
0.000997456
0.000977724
0.00095272
0.000924857
0.000895929
0.000867123
0.000839091
0.000811809
0.000784432
0.000754938
0.000725688
0.000693868
0.000656816
0.000612349
0.000569151
0.00062448
0.000703408
0.000784675
0.000849111
0.000899831
0.000939484
0.000971338
0.000993333
0.00100669
0.00101424
0.00101852
0.00102064
0.00102167
0.00102029
0.00101509
0.00100307
0.000984459
0.000960611
0.000933823
0.000905802
0.000877717
0.000850259
0.000823419
0.000796351
0.000767149
0.000738203
0.000706744
0.000670085
0.000625889
0.000580059
0.000618229
0.000681729
0.000768799
0.000835408
0.00088677
0.000926573
0.000958993
0.000983668
0.000999939
0.00100979
0.00101618
0.00102011
0.00102266
0.00102246
0.00101822
0.00100723
0.000989803
0.000967201
0.000941586
0.00091457
0.000887307
0.000860528
0.000834249
0.000807632
0.000778801
0.000750262
0.000719237
0.000683003
0.000639104
0.000591387
0.000613353
0.00065428
0.000750663
0.00082095
0.000873621
0.000913923
0.000945883
0.000972916
0.000992046
0.0010042
0.00101263
0.00101834
0.00102231
0.00102325
0.00101999
0.00101007
0.000993914
0.000972654
0.000948307
0.00092239
0.000896043
0.000870046
0.000844453
0.000818421
0.000790034
0.000761972
0.000731447
0.000695672
0.000652092
0.00060319
0.000610106
0.000622419
0.000729515
0.000805571
0.000860302
0.000901437
0.000933544
0.000961371
0.000983136
0.000997606
0.00100801
0.00101542
0.00102074
0.00102281
0.00102055
0.00101176
0.000996944
0.000977118
0.000954135
0.000929414
0.000904084
0.000878977
0.000854192
0.000828876
0.000801127
0.000773476
0.000743483
0.0007082
0.00066494
0.000615344
0.000608843
0.000596172
0.000703688
0.000789095
0.000846781
0.000889076
0.000921593
0.000949227
0.00097335
0.000990162
0.00100244
0.00101147
0.00101808
0.00102123
0.00101999
0.00101241
0.000999031
0.000980737
0.000959225
0.000935807
0.000911595
0.000887483
0.000863612
0.000839144
0.000812151
0.000784914
0.000755463
0.000720673
0.000677709
0.000627396
0.000609446
0.000591798
0.000671593
0.000771369
0.000833113
0.000876859
0.000909937
0.000937254
0.000962771
0.000981915
0.000995941
0.00100654
0.00101438
0.00101857
0.00101843
0.00101212
0.00100028
0.00098363
0.000963711
0.000941716
0.000918739
0.000895715
0.000872846
0.000849332
0.000823213
0.000796405
0.000767484
0.000733169
0.000690448
0.000639318
0.000612277
0.000611624
0.000641463
0.00075194
0.00081944
0.000864853
0.000898569
0.000925816
0.000951434
0.000972794
0.000988544
0.0010006
0.00100963
0.00101485
0.00101587
0.00101094
0.00100075
0.00098587
0.000967685
0.000947252
0.000925632
0.000903793
0.000881982
0.000859486
0.000834331
0.000808007
0.000779653
0.000745764
0.000703206
0.000651298
0.000617209
0.000639639
0.000626481
0.00073034
0.000805974
0.000853165
0.000887493
0.00091473
0.00093944
0.000962773
0.000980071
0.000993462
0.00100364
0.00100991
0.00101213
0.0010087
0.00100033
0.000987401
0.00097109
0.00095238
0.000932253
0.000911688
0.000890985
0.000869515
0.000845362
0.00081972
0.000792002
0.000758527
0.000716032
0.000663315
0.000623533
0.000668066
0.000628075
0.000709487
0.000793109
0.000841893
0.000876675
0.000904001
0.000928266
0.000951763
0.000970152
0.000984647
0.000995903
0.00100324
0.00100672
0.00100491
0.000998518
0.00098764
0.000973523
0.000956677
0.000938175
0.000918992
0.000899445
0.000879001
0.000855926
0.000831545
0.000804708
0.000771696
0.000729129
0.000675528
0.000631044
0.000695593
0.000642947
0.000693329
0.000781433
0.000831338
0.000866551
0.00089409
0.000918138
0.000941206
0.000958699
0.000973698
0.000985797
0.000994104
0.000998812
0.000998699
0.00099438
0.000985808
0.000973918
0.000959241
0.000942569
0.00092491
0.000906601
0.000887312
0.000866612
0.000844234
0.000818551
0.000786101
0.000743267
0.00068856
0.000640286
0.000722328
0.000662258
0.000685164
0.000772395
0.000822726
0.000858159
0.000885937
0.000909922
0.000932862
0.000949995
0.000964577
0.000976572
0.000985331
0.000990973
0.000992704
0.000990736
0.000985046
0.000976116
0.000964349
0.000950309
0.00093476
0.00091815
0.000900536
0.000881536
0.000860515
0.000835673
0.000803447
0.000760161
0.000703793
0.000652717
0.000751356
0.000685788
0.000687962
0.000768596
0.000818525
0.000854115
0.000882319
0.000906726
0.000930264
0.000948016
0.000963104
0.000975802
0.000985762
0.000993046
0.000997052
0.000997686
0.000994966
0.000989035
0.000980103
0.000968596
0.000955133
0.00094014
0.000923786
0.000905777
0.000885388
0.000860667
0.000827991
0.000783506
0.000724867
0.000671348
0.000791174
0.000723807
0.000715027
0.000785338
0.000833739
0.000869632
0.000898655
0.000924222
0.000949186
0.000968679
0.000985369
0.000999691
0.00101167
0.00102132
0.00102795
0.00103114
0.00103106
0.00102757
0.00102073
0.00101096
0.000998839
0.000984757
0.000968856
0.000950835
0.000930003
0.000904565
0.000870946
0.000824572
0.000763029
0.00070792
0.000893675
0.000840761
0.00083496
0.000888654
0.00093233
0.000967006
0.00099508
0.00102043
0.00104476
0.00106526
0.00108302
0.00109788
0.00111107
0.00112248
0.0011303
0.00113436
0.00113498
0.00113206
0.00112561
0.00111613
0.00110431
0.00109044
0.00107466
0.00105598
0.00103439
0.00100873
0.0009765
0.00093345
0.000876047
0.000826037
0.00125484
0.00124343
0.00124795
0.00127132
0.00129324
0.00131158
0.00132115
0.00132993
0.00133743
0.00134554
0.00135378
0.00135918
0.00136619
0.00137398
0.00137751
0.0013788
0.0013781
0.00137576
0.00137147
0.00136618
0.00136056
0.0013549
0.001349
0.00133785
0.00132571
0.00131285
0.00129839
0.00128024
0.00125351
0.00123158
0.000184032
0.000196071
0.00019776
0.000195495
0.000190405
0.000183452
0.000175444
0.000167021
0.000158632
0.000150658
0.000143299
0.000136813
0.000131262
0.000126762
0.000122656
0.000118164
0.000112967
0.000107198
0.000101084
9.47264e-05
8.82167e-05
8.27924e-05
7.96535e-05
7.74961e-05
7.56837e-05
7.46746e-05
8.40294e-05
9.97192e-05
0.000112797
0.000113869
0.00069958
0.000848886
0.000874344
0.000861122
0.000824103
0.000776419
0.000727063
0.000680405
0.000637068
0.000596892
0.000558641
0.000522139
0.000485338
0.000444992
0.000399059
0.000353216
0.000313522
0.000284245
0.000264352
0.000252589
0.000246486
0.000252104
0.000264443
0.000292112
0.000308761
0.000304721
0.00038141
0.000495821
0.000628191
0.000682754
0.00114999
0.00146143
0.00157371
0.00159349
0.00155404
0.00148185
0.00139951
0.00131761
0.00123895
0.00116441
0.0010921
0.00102116
0.000948875
0.000868087
0.000776915
0.000685659
0.000605688
0.0005465
0.000506411
0.00048205
0.000470382
0.000476312
0.000490733
0.000515189
0.00051496
0.000479116
0.000514062
0.000655625
0.000874863
0.00104076
0.00146771
0.00195369
0.00213918
0.00220497
0.00218338
0.00210516
0.00200618
0.00190124
0.00179699
0.00169644
0.00159715
0.00149538
0.00138934
0.00127304
0.00114305
0.00101299
0.000898021
0.000811886
0.000752665
0.000715788
0.000695615
0.000695988
0.000705635
0.00071812
0.000690293
0.000615786
0.000591383
0.000719499
0.00101538
0.00129283
0.0017153
0.00228363
0.00258666
0.00269474
0.00269907
0.00262892
0.00252432
0.0024065
0.00228592
0.00216754
0.00204459
0.00192026
0.00178755
0.00164077
0.00147829
0.00131612
0.00117336
0.00106416
0.000988168
0.000939887
0.00091158
0.000904586
0.000906777
0.000907659
0.000852609
0.000739734
0.000659639
0.000755911
0.00111635
0.00150199
0.00188692
0.00249206
0.0028925
0.00308224
0.00311403
0.00306161
0.00295895
0.00283642
0.00270649
0.00257454
0.00243796
0.00229568
0.00214186
0.00197101
0.0017815
0.00159379
0.00142939
0.00130089
0.00121028
0.0011517
0.00111593
0.00110143
0.00109583
0.00108704
0.00100774
0.000860379
0.000730841
0.000786832
0.00118314
0.00167445
0.0020213
0.00264161
0.00308118
0.00335452
0.00344288
0.00341394
0.00332009
0.00319921
0.00306485
0.00292499
0.0027803
0.00262561
0.00245582
0.0022666
0.00205558
0.00184815
0.00166714
0.00152273
0.00141947
0.00135137
0.00130875
0.00128725
0.0012744
0.0012578
0.00115765
0.000980327
0.000807539
0.000821255
0.001223
0.00180367
0.00212353
0.00275084
0.00322002
0.00352646
0.00369
0.00369474
0.00361796
0.0035028
0.00336868
0.00322701
0.00307616
0.00291447
0.00273363
0.00253089
0.00230368
0.00208165
0.00188775
0.00173122
0.00161665
0.00153973
0.00149079
0.00146299
0.00144387
0.00142094
0.00130307
0.00110008
0.000890993
0.000860928
0.00124123
0.00189036
0.0021886
0.00282288
0.00331608
0.00365364
0.00384697
0.00391475
0.00385942
0.00375393
0.00362504
0.00348393
0.00333013
0.00316702
0.00297926
0.0027671
0.00252867
0.00229652
0.00209289
0.00192731
0.00180283
0.00171778
0.00166287
0.0016296
0.00160542
0.00157722
0.00144445
0.00121964
0.00097962
0.000902245
0.00124504
0.00193978
0.00220736
0.00285714
0.00337518
0.00374037
0.00396308
0.00405798
0.00404885
0.00395963
0.00383966
0.00370182
0.0035511
0.00338617
0.00319636
0.00297801
0.00273314
0.00249471
0.00228409
0.00211184
0.00197889
0.00188646
0.00182578
0.00178794
0.00176011
0.00172743
0.00158216
0.00133883
0.00107207
0.000943987
0.00123777
0.00195926
0.00215764
0.00285034
0.00339981
0.00379253
0.00404341
0.0041658
0.00418492
0.00412484
0.00401732
0.0038862
0.00373972
0.00357533
0.00338792
0.00316686
0.00291946
0.00267793
0.00246269
0.00228525
0.00214588
0.00204648
0.00198042
0.00193868
0.00190883
0.00187221
0.00171664
0.00145756
0.00116783
0.000994545
0.00123005
0.00195691
0.00205658
0.00279542
0.00339137
0.00381446
0.00409272
0.00424356
0.00428597
0.004254
0.00416242
0.00404152
0.00390062
0.00374138
0.00355403
0.00333606
0.00308964
0.00284769
0.00262983
0.00244841
0.00230428
0.0021985
0.00212751
0.00208245
0.00205181
0.00201212
0.00184827
0.00157584
0.00126695
0.00105369
0.00122655
0.00194097
0.00192186
0.00268953
0.00334889
0.00380854
0.00411527
0.00429477
0.00436169
0.00434972
0.00427963
0.00417129
0.0040379
0.00388482
0.00370206
0.00348583
0.0032455
0.00300531
0.00278647
0.00260216
0.00245443
0.00234301
0.00226765
0.00221975
0.00218941
0.00214762
0.00197749
0.00169372
0.00136763
0.00111665
0.00123276
0.00191673
0.00176936
0.00255081
0.00325892
0.00377532
0.00411493
0.00432228
0.00441517
0.00442482
0.0043729
0.0042787
0.00415501
0.00400839
0.00383284
0.00362318
0.00338767
0.00315178
0.00293341
0.00274715
0.00259653
0.00248053
0.00240132
0.00235099
0.0023219
0.0022791
0.00210472
0.00181132
0.00146677
0.00118342
0.00125156
0.00189165
0.00161248
0.00239487
0.003138
0.00371141
0.00409367
0.00432926
0.00444902
0.00447931
0.00444558
0.00436805
0.00425432
0.00411561
0.00394867
0.00374762
0.00351957
0.00328827
0.00307133
0.00288388
0.00273071
0.00261137
0.00252881
0.00247641
0.00244936
0.00240671
0.0022302
0.00192882
0.00156837
0.00125882
0.00128014
0.00187095
0.0014627
0.00223459
0.00299946
0.00361732
0.00405181
0.004319
0.00446533
0.00451653
0.004501
0.00444002
0.00433793
0.00420931
0.00405141
0.00386049
0.00364103
0.00341537
0.00320062
0.00301263
0.00285727
0.00273528
0.00265
0.00259599
0.00257149
0.00253022
0.00235379
0.00204684
0.0016729
0.00134243
0.00131907
0.00185609
0.00132913
0.00208002
0.00285382
0.00350329
0.00398348
0.00429384
0.00446705
0.00453892
0.004542
0.00449705
0.00440999
0.00429115
0.00414274
0.00396259
0.00375235
0.00353292
0.00332109
0.00313314
0.002976
0.00285163
0.00276434
0.00270923
0.00268743
0.00264867
0.00247468
0.00216501
0.00178005
0.00143247
0.00135981
0.00184676
0.00122172
0.00193464
0.00270778
0.00337892
0.00389719
0.00425398
0.00445683
0.00454849
0.0045704
0.00454187
0.00447026
0.00436149
0.00422298
0.0040537
0.00385242
0.00363993
0.00343177
0.00324432
0.00308581
0.0029591
0.00287034
0.00281487
0.00279521
0.00275992
0.00259093
0.00228193
0.00188922
0.00152857
0.00140365
0.00184829
0.00114509
0.00179916
0.00256751
0.00325168
0.0038004
0.00419658
0.0044347
0.00454892
0.00458779
0.004576
0.00451772
0.00441867
0.0042908
0.00413141
0.00393964
0.00373401
0.00352992
0.00334348
0.00318399
0.00305535
0.00296478
0.0029103
0.00289103
0.00285973
0.00269892
0.00239469
0.00199963
0.00162627
0.00146174
0.00185726
0.0011093
0.0016767
0.00243754
0.00312755
0.00369872
0.00412764
0.00440228
0.00453767
0.00459466
0.00459522
0.00455217
0.0044612
0.00434179
0.00419202
0.00400884
0.00380987
0.00361003
0.00342509
0.00326525
0.00313475
0.00304253
0.00298904
0.00296809
0.00294156
0.00279261
0.00249811
0.0021049
0.00172445
0.00153076
0.0018737
0.00111705
0.00157681
0.00232043
0.00301084
0.00359659
0.00405145
0.00435914
0.00451559
0.00458764
0.00459745
0.00456585
0.00448124
0.00436597
0.0042262
0.00404999
0.00385701
0.00366172
0.00347918
0.00331916
0.00318763
0.00309455
0.00304048
0.00301707
0.00299463
0.00286303
0.00258451
0.0021996
0.00181627
0.0016008
0.00190432
0.00119403
0.00151232
0.00221875
0.00290424
0.00349669
0.00396969
0.0043019
0.00448103
0.00454424
0.00456967
0.0045443
0.00446525
0.00434872
0.00421523
0.00404546
0.00385773
0.00366783
0.00348838
0.0033278
0.00319797
0.00310482
0.0030491
0.00302495
0.00300619
0.00289633
0.00264335
0.00227621
0.00189794
0.00166498
0.00194851
0.00129687
0.00148672
0.00213619
0.00280786
0.00339944
0.00386943
0.00418987
0.00437108
0.00446295
0.00449033
0.00446312
0.00438512
0.00426644
0.00412985
0.00396825
0.00378653
0.00360271
0.00342476
0.00326906
0.00314245
0.00305101
0.00299674
0.00297505
0.00296305
0.00287825
0.00266286
0.0023256
0.0019625
0.00172444
0.00198977
0.00141307
0.00148059
0.00207469
0.00271797
0.00326343
0.00368615
0.00399289
0.00420895
0.00430536
0.00432084
0.00428294
0.00420199
0.00408404
0.0039428
0.00378651
0.00361691
0.00343848
0.00327017
0.00312398
0.00300615
0.00292209
0.00287454
0.00285963
0.00285645
0.00280163
0.00263434
0.00233938
0.00200629
0.0017793
0.00201487
0.00151561
0.00152897
0.00201793
0.0025715
0.00304552
0.00344406
0.00374097
0.00393006
0.00400966
0.00401434
0.00396947
0.00388948
0.00377988
0.00364774
0.00349904
0.00335044
0.00319417
0.0030478
0.00292085
0.00281926
0.0027477
0.00270866
0.00269905
0.00270193
0.00267573
0.0025604
0.00231473
0.00202521
0.00181936
0.00202371
0.00160616
0.0015764
0.00195064
0.00240042
0.00280697
0.00312433
0.00336304
0.00351036
0.00356852
0.00357146
0.00353893
0.0034804
0.00339824
0.00329785
0.00318045
0.00306575
0.00295194
0.00284025
0.00274116
0.00266013
0.00260162
0.00256738
0.0025557
0.00255687
0.00254408
0.00246787
0.0022671
0.00202037
0.00184092
0.00201337
0.00168538
0.0016054
0.00185844
0.00218998
0.00249585
0.00273231
0.00291484
0.00304241
0.00310965
0.00313581
0.00313676
0.00311667
0.00307663
0.00302262
0.002955
0.00288476
0.0028172
0.00274616
0.00267735
0.00261716
0.00256956
0.00253592
0.00251492
0.00250129
0.00247929
0.00241346
0.00224318
0.00202074
0.00184573
0.00194435
0.00182083
0.00169641
0.00181356
0.00206194
0.00228901
0.00247723
0.00263196
0.00275458
0.00283948
0.00288941
0.00291937
0.00293086
0.00292524
0.0029072
0.00287761
0.00284216
0.00280463
0.00275857
0.00271131
0.00266694
0.00262893
0.00259889
0.0025753
0.00255374
0.00252388
0.00245876
0.00231373
0.00210656
0.00191047
0.00191698
0.00212369
0.00203157
0.00208127
0.00224444
0.0023966
0.00252604
0.00263405
0.00272468
0.00279227
0.00283528
0.00286451
0.00287863
0.00287878
0.00286683
0.00284214
0.00281316
0.00278141
0.00274959
0.00271831
0.00268989
0.00266672
0.00264973
0.00263705
0.00262317
0.00260042
0.00255462
0.0024658
0.00232997
0.002178
0.00214502
0.00251092
0.00247636
0.00249168
0.00254376
0.00259751
0.00264918
0.00269401
0.00273375
0.00276268
0.00277984
0.00279193
0.00279723
0.00279652
0.00278682
0.00276448
0.00273955
0.00271574
0.00269517
0.00267946
0.00267028
0.00266745
0.00266985
0.00267569
0.00268016
0.00268087
0.00267207
0.00264902
0.00260448
0.00254472
0.00252722
0.000204966
0.000221587
0.000223809
0.00022194
0.000217003
0.000209877
0.000201411
0.000192281
0.000182948
0.000173803
0.000165004
0.000156784
0.000149063
0.000141883
0.000134346
0.000125676
0.00011588
0.000105656
9.56638e-05
8.59965e-05
7.5781e-05
6.64991e-05
6.29772e-05
6.87154e-05
7.17984e-05
7.88169e-05
9.27311e-05
0.000109248
0.000122714
0.000127805
0.000875295
0.00110988
0.00118343
0.00117683
0.00112857
0.00106079
0.000989241
0.000919705
0.000853429
0.000790118
0.000727643
0.000665782
0.000599296
0.000526219
0.000450827
0.000390853
0.000352657
0.0003386
0.000338994
0.000346284
0.00034389
0.000374189
0.000438029
0.000384324
0.000320254
0.000304524
0.000435928
0.00060521
0.000791042
0.000860681
0.00144518
0.00190647
0.00212636
0.00219068
0.0021549
0.00206053
0.00194468
0.0018222
0.00169917
0.001577
0.00145339
0.00132785
0.00119075
0.00104029
0.000886872
0.000763925
0.000684298
0.000650644
0.000646795
0.000653003
0.00064917
0.000700807
0.000790783
0.000710227
0.000564346
0.000503859
0.000651785
0.00090672
0.00120703
0.00136971
0.00184746
0.0025358
0.00286839
0.00300939
0.00301082
0.00291765
0.00278307
0.00262828
0.00246538
0.00229811
0.00212568
0.00194648
0.00174649
0.00152702
0.00130665
0.00113102
0.00101493
0.000961018
0.000947735
0.00095141
0.000946246
0.000995261
0.00107288
0.000974735
0.000779928
0.000657841
0.000760397
0.0010619
0.00149247
0.00177855
0.00216992
0.0029666
0.00346024
0.00366328
0.0037068
0.00363073
0.00349069
0.00331748
0.0031276
0.00292784
0.00271981
0.00249269
0.0022395
0.00196531
0.00169069
0.00147394
0.00132956
0.00125771
0.00123524
0.00123557
0.00123005
0.00127063
0.00132758
0.00121583
0.000986228
0.000801638
0.000841892
0.00116002
0.00171145
0.00213908
0.00240092
0.00324613
0.00386024
0.00418738
0.00427221
0.00422302
0.00408518
0.0039037
0.00369551
0.003473
0.00323475
0.00297109
0.00267723
0.00235828
0.00204098
0.00179319
0.00162751
0.00154017
0.00150914
0.00150595
0.00150116
0.00153215
0.00156925
0.00144446
0.00118841
0.000948685
0.000918257
0.00122713
0.00187609
0.00245151
0.0025957
0.0034695
0.00412739
0.00455795
0.00472996
0.00471261
0.00458523
0.00440189
0.00418198
0.00394315
0.00368023
0.00339199
0.00306607
0.00271168
0.00236263
0.0020924
0.00191099
0.00181008
0.0017708
0.00176394
0.00176011
0.00178239
0.00180274
0.00166528
0.0013878
0.001104
0.00100628
0.00127903
0.0019987
0.00271288
0.00276807
0.00365813
0.00435045
0.00481947
0.0050773
0.00511179
0.00500571
0.00482399
0.00459888
0.00434807
0.00406806
0.00376209
0.00341332
0.00303112
0.00266073
0.00237529
0.00218232
0.00206953
0.00202183
0.00201099
0.00200786
0.00202326
0.00202967
0.00188002
0.00158507
0.0012635
0.00110479
0.0013299
0.0020883
0.0029241
0.00291545
0.00381353
0.00453321
0.00503565
0.00532388
0.00543654
0.0053557
0.00517999
0.00495576
0.00469703
0.00440881
0.00408756
0.00372443
0.00332268
0.00293994
0.00264517
0.00244333
0.00232068
0.00226389
0.00224839
0.0022454
0.00225622
0.00225038
0.00208917
0.00177989
0.00142638
0.00121179
0.00138529
0.00215218
0.00309025
0.0030273
0.00393256
0.00467512
0.0052057
0.00552747
0.0056622
0.00564026
0.00547911
0.0052602
0.00499839
0.00470538
0.00437391
0.00400285
0.00359156
0.00320436
0.0029049
0.0026961
0.00256485
0.00249825
0.00247729
0.00247361
0.00248262
0.00246446
0.00229247
0.00197148
0.00159139
0.00132555
0.00144774
0.00220025
0.00321423
0.00308748
0.00400961
0.00477693
0.00533718
0.0056907
0.00585039
0.00585422
0.00572761
0.0055182
0.00525957
0.00496453
0.00463232
0.00425306
0.00384271
0.00345744
0.00315678
0.00294232
0.002803
0.00272592
0.00269849
0.00269324
0.00270188
0.00267081
0.00248921
0.0021589
0.00175714
0.00144396
0.00152129
0.00223539
0.00330162
0.00308534
0.00403596
0.00484063
0.00543081
0.00581447
0.00600343
0.00602874
0.00593195
0.00573638
0.00548601
0.00519269
0.00486224
0.00448106
0.00407902
0.00370181
0.00340253
0.00318314
0.0030358
0.00294749
0.00291248
0.00290476
0.00291241
0.00286851
0.00267834
0.00234106
0.00192241
0.00156981
0.00160252
0.00226694
0.00335836
0.0030172
0.00400895
0.004864
0.00549202
0.00590337
0.00612423
0.0061733
0.0060944
0.0059211
0.00568223
0.00539459
0.00506877
0.00469554
0.00430471
0.0039395
0.00364318
0.00341916
0.00326337
0.00316324
0.0031193
0.00310833
0.0031129
0.00305604
0.00285847
0.00251674
0.00208583
0.0017024
0.0016814
0.0022996
0.00339484
0.0028903
0.00393072
0.00484573
0.00552185
0.00596491
0.00621444
0.00629046
0.00623197
0.00607743
0.00585201
0.00557495
0.00525713
0.00489929
0.00452275
0.0041716
0.00387892
0.00365019
0.00348512
0.00337284
0.00331859
0.00330343
0.00330158
0.0032313
0.00302774
0.00268442
0.00224575
0.00183865
0.00176838
0.00233707
0.00342218
0.00272095
0.00380947
0.00478932
0.00552064
0.00600195
0.0062763
0.00638178
0.00634565
0.00620939
0.00600001
0.00573724
0.00543192
0.00509321
0.00473536
0.00439797
0.00410885
0.00387508
0.00369981
0.00357468
0.00350955
0.00348801
0.00347559
0.00339142
0.00318361
0.00284204
0.00240029
0.00197718
0.00187042
0.00238203
0.00344775
0.00253058
0.00365769
0.00470075
0.00549105
0.0060158
0.00631843
0.00644981
0.00643738
0.00632075
0.00612993
0.0058836
0.00559501
0.00527424
0.00494014
0.0046165
0.00433044
0.00409113
0.00390484
0.0037658
0.0036892
0.00365775
0.00363053
0.00353235
0.00332259
0.00298678
0.00254692
0.00211586
0.00198219
0.00243843
0.00347635
0.00234133
0.00348946
0.00458792
0.00543683
0.00600697
0.0063419
0.00649509
0.0065085
0.00641456
0.00624416
0.00601474
0.00574436
0.00544649
0.00513356
0.00482275
0.00453888
0.00429342
0.00409511
0.00394183
0.00385161
0.00380559
0.00376006
0.00364864
0.00343999
0.00311465
0.00268191
0.00225225
0.00209743
0.00250901
0.00351022
0.00217417
0.00331804
0.00445958
0.00536239
0.00597758
0.00634701
0.00652274
0.00655533
0.00648371
0.00633993
0.00613319
0.00587543
0.00560057
0.00530841
0.00500893
0.00472599
0.0044737
0.00426215
0.00409466
0.00398753
0.00392182
0.00385564
0.00373333
0.00352991
0.00322049
0.00280063
0.00238294
0.00220673
0.00259986
0.00355021
0.00204495
0.00315514
0.00432458
0.00527229
0.00592907
0.00633202
0.00653253
0.00658347
0.00652844
0.00642515
0.00622925
0.00598284
0.00572364
0.00545354
0.00516269
0.00487903
0.00461917
0.00439358
0.00420991
0.0040828
0.00399402
0.00390683
0.00377833
0.0035856
0.0032985
0.00289869
0.00250188
0.00231001
0.00269841
0.00359433
0.00196688
0.00301055
0.00419138
0.00517051
0.00586189
0.0062962
0.00652131
0.00658995
0.00655688
0.00646234
0.00628589
0.00605349
0.00580259
0.00554921
0.00526568
0.00497967
0.00471223
0.0044697
0.00426913
0.00412024
0.00400884
0.00390418
0.00377585
0.00360036
0.00334272
0.00297092
0.00260169
0.00240601
0.00279347
0.00363772
0.00191945
0.00289328
0.00406808
0.0050589
0.00577518
0.00623626
0.0064815
0.00652949
0.006521
0.00643975
0.0062795
0.00606474
0.00581813
0.00556814
0.00529448
0.00500512
0.00472937
0.0044692
0.00425333
0.0040858
0.00395633
0.00384197
0.00372112
0.00356966
0.00334854
0.00301277
0.00267825
0.00249089
0.0028684
0.00367244
0.00192601
0.00281261
0.00395144
0.00493689
0.00565029
0.00608731
0.00628501
0.0063842
0.00640054
0.00632918
0.00618027
0.00598183
0.00574293
0.00548806
0.00522139
0.00493367
0.00464765
0.00438007
0.00415566
0.00397727
0.00383811
0.00372358
0.00361687
0.00349456
0.00331504
0.00302192
0.00272687
0.00256404
0.00292182
0.00368531
0.00200303
0.00275256
0.0038201
0.00473818
0.00536723
0.00575693
0.00600172
0.00613957
0.00616604
0.00609273
0.00595512
0.00577326
0.00555124
0.00529822
0.00503006
0.00475493
0.00447299
0.00421323
0.00399173
0.00381366
0.0036756
0.00356813
0.00347861
0.00338601
0.00324852
0.00300043
0.00274424
0.0026124
0.00294627
0.00364745
0.00205768
0.00266143
0.00360236
0.00437785
0.00493984
0.00535484
0.0056218
0.00575703
0.00577647
0.00570939
0.00559083
0.00543318
0.00523824
0.00500828
0.00474804
0.00449629
0.00424522
0.00400794
0.00380338
0.00363733
0.00350848
0.00341118
0.00333663
0.00326749
0.00316546
0.00295928
0.00273315
0.00262563
0.00292475
0.00352829
0.00210581
0.00259093
0.00329467
0.00395756
0.00448328
0.00485471
0.00509918
0.00522827
0.00524874
0.00520516
0.00512179
0.00500435
0.00485163
0.00466377
0.00444077
0.00422553
0.00402072
0.00382061
0.00364202
0.00349513
0.00337971
0.00329242
0.00322751
0.00317172
0.0030928
0.00292197
0.00270818
0.00260103
0.00284253
0.00331395
0.00216208
0.00246534
0.00301333
0.00352071
0.00394228
0.00427072
0.00449264
0.00462952
0.00467914
0.00467879
0.00464535
0.00458037
0.00448081
0.00434731
0.00417949
0.00400958
0.00385037
0.0036861
0.0035342
0.00340747
0.00330674
0.00323022
0.0031733
0.00312512
0.0030594
0.0029175
0.00270213
0.00256038
0.00270279
0.00305608
0.00223029
0.00232616
0.00271784
0.00311424
0.00346619
0.00375035
0.00396658
0.00412357
0.00421422
0.00425918