/*--------------------------------*- C++ -*----------------------------------*\
| =========                 |                                                 |
| \\      /  F ield         | OpenFOAM: The Open Source CFD Toolbox           |
|  \\    /   O peration     | Version:  5.0                                   |
|   \\  /    A nd           | Web:      www.OpenFOAM.org                      |
|    \\/     M anipulation  |                                                 |
\*---------------------------------------------------------------------------*/
FoamFile
{
    version     2.0;
    format      ascii;
    class       volScalarField;
    location    "1450/air";
    object      alphat;
}
// * * * * * * * * * * * * * * * * * * * * * * * * * * * * * * * * * * * * * //

dimensions      [1 -1 -1 0 0 0 0];

internalField   nonuniform List<scalar> 
243000
(
0.000160716
0.000164714
0.000162044
0.000157378
0.000151419
0.000144785
0.000137868
0.00013096
0.000124262
0.000117942
0.00011206
0.000106657
0.000101708
9.72926e-05
9.34492e-05
9.0355e-05
8.81637e-05
8.71273e-05
8.72386e-05
8.82122e-05
8.94595e-05
9.03458e-05
9.03364e-05
8.91085e-05
8.63285e-05
8.52747e-05
0.000366531
0.000363595
0.000331786
0.00033503
0.000694676
0.000738895
0.000750106
0.000750453
0.000743911
0.00073251
0.000717772
0.000700833
0.000682463
0.000663221
0.000643371
0.000623248
0.000603028
0.00058351
0.000565294
0.000549598
0.000537408
0.000530341
0.000527962
0.000528459
0.000528546
0.000525144
0.000515668
0.000498904
0.000476157
0.000442673
0.000417043
0.000378358
0.000341024
0.000319553
0.000745187
0.000789178
0.00080373
0.000805683
0.000799769
0.000788547
0.000773631
0.000756241
0.000737189
0.000717139
0.00069641
0.000675473
0.000654612
0.000634792
0.000616722
0.000601778
0.000590959
0.000585679
0.000584984
0.000586635
0.000587347
0.000584214
0.000574747
0.000557673
0.000533239
0.000502214
0.000466547
0.000424124
0.000380935
0.000345204
0.000761805
0.000808815
0.000828154
0.000833725
0.000830617
0.000821623
0.000808361
0.000792122
0.000773812
0.000754203
0.000733729
0.000713016
0.000692458
0.000673184
0.000656027
0.000642508
0.000633594
0.000630355
0.0006312
0.00063358
0.000634354
0.000630938
0.000621148
0.000603802
0.000578984
0.00054737
0.000510055
0.000465485
0.000418839
0.000377378
0.000758425
0.000806123
0.000832009
0.00084346
0.000844665
0.000839062
0.000828474
0.000814316
0.000797604
0.000779224
0.000759743
0.000739928
0.000720306
0.00070216
0.000686426
0.000674757
0.000668026
0.000666863
0.000669069
0.000671914
0.000672503
0.000668587
0.000658355
0.000640796
0.000615927
0.000584242
0.000546725
0.000501893
0.000453311
0.000409057
0.000742265
0.000791243
0.000823128
0.000840299
0.0008466
0.000845107
0.00083779
0.000826345
0.000811777
0.00079515
0.000777156
0.000758702
0.000740456
0.000723838
0.000709874
0.000700334
0.000695924
0.000696772
0.000700178
0.000703344
0.00070366
0.000699178
0.000688471
0.000670748
0.000646014
0.000614674
0.000577581
0.000533449
0.000484114
0.000438361
0.000714547
0.000767156
0.000804758
0.000827771
0.000839421
0.000842541
0.000839092
0.000830559
0.000818379
0.000803946
0.000787803
0.000771043
0.000754478
0.000739682
0.000727717
0.00072049
0.000718456
0.000721197
0.000725681
0.0007291
0.000729129
0.000724101
0.000712942
0.000695092
0.000670599
0.000639824
0.000603483
0.000560501
0.000511715
0.000465012
0.000678043
0.000735931
0.00077918
0.000808003
0.000825179
0.000833089
0.000833731
0.00082868
0.000819383
0.00080709
0.000792958
0.000778164
0.000763514
0.000750735
0.000740939
0.000736137
0.000736459
0.000740979
0.000746437
0.000750089
0.000749863
0.000744362
0.000732809
0.000714876
0.000690678
0.000660571
0.000625164
0.000583653
0.000535999
0.000488943
0.000639839
0.000701747
0.00074899
0.000783031
0.000805491
0.000818203
0.000822998
0.000821599
0.000815385
0.000805806
0.000793955
0.000781037
0.000768443
0.000757796
0.000750284
0.000747963
0.00075056
0.000756748
0.000763106
0.000766997
0.000766585
0.000760711
0.000748854
0.000730888
0.000707023
0.000677632
0.000643326
0.000603146
0.000556813
0.000510175
0.000602748
0.000666384
0.000717959
0.000755946
0.000782071
0.000799207
0.000808074
0.000810381
0.00080743
0.000800647
0.000791207
0.000780584
0.000769995
0.00076151
0.000756326
0.000756478
0.000761252
0.000768997
0.000776196
0.000780353
0.000779847
0.000773724
0.000761672
0.000743741
0.000720247
0.000691664
0.000658324
0.000619302
0.000574351
0.000528828
0.000571578
0.00062991
0.000685239
0.000727753
0.000757902
0.000778102
0.000790205
0.000795981
0.000796327
0.000792429
0.000785518
0.000777145
0.000768698
0.000762389
0.000759522
0.000762066
0.000768924
0.000778118
0.00078611
0.000790573
0.000790081
0.000783841
0.000771721
0.000753912
0.000730892
0.000703001
0.000670462
0.000632538
0.000589005
0.000544911
0.000553935
0.000594682
0.000650584
0.000697694
0.000732477
0.000756349
0.000771341
0.000779477
0.000782815
0.00078177
0.000777407
0.000771327
0.000765024
0.00076085
0.000760242
0.00076506
0.000773849
0.000784431
0.000793183
0.000797997
0.000797633
0.000791417
0.000779365
0.000761806
0.000739249
0.000711976
0.000680157
0.000643199
0.000601585
0.000558889
0.000558004
0.000568039
0.000615522
0.000665452
0.000705148
0.000733358
0.000751802
0.000762662
0.000768016
0.00076931
0.000767364
0.000763536
0.000759339
0.00075726
0.000758791
0.000765731
0.000776265
0.000788143
0.000797688
0.000802908
0.000802787
0.000796742
0.000784911
0.00076773
0.000745601
0.000718904
0.000687716
0.000651608
0.000612151
0.000570927
0.000586582
0.000562462
0.000586175
0.000632169
0.000675663
0.000708611
0.000731138
0.00074521
0.000752962
0.000756032
0.000755946
0.000754174
0.00075198
0.000751903
0.000755424
0.000764309
0.000776497
0.000789473
0.000799777
0.000805548
0.000805773
0.000800071
0.000788649
0.000771854
0.000750197
0.000724043
0.000693431
0.00065837
0.000620983
0.000581221
0.000634344
0.000591095
0.000576399
0.000603434
0.000645179
0.000682
0.000708984
0.000726785
0.000737372
0.000742545
0.000743992
0.000743703
0.000743289
0.000745025
0.000750367
0.00076099
0.000774607
0.000788711
0.000799867
0.000806148
0.000806786
0.000801595
0.000790657
0.000774361
0.000753231
0.00072761
0.000697569
0.000664264
0.000628524
0.000590037
0.000685133
0.000642789
0.000600808
0.000591924
0.000618614
0.000654694
0.000685346
0.000707162
0.000721012
0.000728645
0.000731891
0.000732785
0.000733622
0.00073689
0.000743829
0.000755958
0.000770819
0.000785903
0.000797854
0.000804844
0.000806015
0.000801282
0.000790951
0.000775335
0.000754845
0.000729809
0.000700787
0.000669241
0.000634954
0.000597576
0.000734014
0.000699244
0.000651314
0.00061162
0.000606626
0.000630895
0.000661353
0.000686456
0.000703758
0.000714173
0.000719494
0.000721814
0.000723479
0.000727793
0.00073602
0.000749393
0.000765307
0.000781269
0.000794018
0.0008018
0.000803638
0.000799596
0.000789892
0.000774937
0.000755144
0.000730813
0.000703485
0.000673451
0.000640417
0.000603978
0.000781683
0.000750752
0.000708052
0.000658292
0.000621712
0.000619233
0.000640478
0.000665682
0.000685786
0.000699079
0.0007067
0.000710667
0.000713374
0.000718083
0.000727185
0.000741492
0.000758253
0.000774983
0.000788529
0.000797172
0.000799822
0.000796591
0.000787682
0.000773498
0.000754454
0.000731516
0.000705703
0.000676987
0.000645023
0.000609353
0.00082827
0.000799799
0.000763666
0.000715419
0.000663119
0.000629909
0.000629283
0.000647507
0.000667921
0.000683544
0.000693497
0.000699274
0.000703205
0.000708387
0.000717666
0.000732499
0.000749868
0.000767245
0.000781566
0.000791116
0.000794716
0.000792417
0.00078451
0.000771198
0.000753248
0.000731927
0.000707494
0.00067993
0.000648857
0.000613787
0.00087369
0.00084659
0.000813239
0.000770128
0.000716492
0.000663904
0.000635436
0.000636659
0.000652096
0.000668202
0.000680046
0.000687636
0.000692917
0.000698772
0.000708043
0.000722756
0.000740409
0.000758276
0.000773317
0.000783807
0.000788477
0.000787238
0.000780458
0.000768265
0.000752006
0.000732155
0.000708959
0.00068238
0.000652013
0.000617347
0.000917762
0.00089135
0.000859694
0.000820677
0.000770511
0.000711742
0.000661251
0.000638601
0.000641568
0.000654396
0.000666819
0.000675893
0.000682519
0.00068918
0.000698635
0.000712818
0.000730253
0.000748376
0.000764024
0.000775441
0.000781269
0.000781224
0.000775792
0.000765437
0.000750794
0.000732306
0.00071021
0.000684454
0.000654604
0.000620136
0.00096023
0.000934225
0.000904647
0.000868014
0.000821254
0.000763078
0.000701324
0.000656123
0.000640017
0.000644249
0.000654728
0.000664395
0.000672131
0.000679633
0.000689406
0.00070327
0.000720293
0.000738234
0.000754255
0.000766491
0.000773588
0.000775072
0.000771336
0.000762743
0.000749688
0.000732508
0.000711393
0.000686302
0.000656778
0.000622286
0.00100092
0.000975753
0.000947398
0.000912253
0.000868
0.000812359
0.000747421
0.000686865
0.000650049
0.000640275
0.00064519
0.000653806
0.000662044
0.000670263
0.000680406
0.000694113
0.000710822
0.000728622
0.000744961
0.000757939
0.000766249
0.000769248
0.000767149
0.000760275
0.000748799
0.000732902
0.000712722
0.000688137
0.000658736
0.000623976
0.00104055
0.00101657
0.000988148
0.000953641
0.000911052
0.000857989
0.000793732
0.000725569
0.000671476
0.000644699
0.000640079
0.000645253
0.00065293
0.00066149
0.00067194
0.000685577
0.000702043
0.000719716
0.000736315
0.000749972
0.000759413
0.000763898
0.000763391
0.000758208
0.000748278
0.000733699
0.000714448
0.000690319
0.000660812
0.000625478
0.00107747
0.00105354
0.00102549
0.000991863
0.00095082
0.000900169
0.000838226
0.000767949
0.000702495
0.000659158
0.00064188
0.000640764
0.000646319
0.000654534
0.000665108
0.000678702
0.000694939
0.000712449
0.00072921
0.000743423
0.000753819
0.000759643
0.000760706
0.000757058
0.000748584
0.000735355
0.000717097
0.000693382
0.000663632
0.000627343
0.00111194
0.00108839
0.00106101
0.00102847
0.000989171
0.000941126
0.000882399
0.000813502
0.000742672
0.00068624
0.000655151
0.000645117
0.000646532
0.000653526
0.000663956
0.000677481
0.000693408
0.000710541
0.000727134
0.000741539
0.000752523
0.000759252
0.000761515
0.000759223
0.000752094
0.00074004
0.000722614
0.000699126
0.00066864
0.000630683
0.00114817
0.00112542
0.00109914
0.00106821
0.00103128
0.000986709
0.000932578
0.000868186
0.000798021
0.000734684
0.000691982
0.000672138
0.000668005
0.000672808
0.000682871
0.000696115
0.000711139
0.000726991
0.000742274
0.000755582
0.00076583
0.000772285
0.000774668
0.000772764
0.000766177
0.000754645
0.000737519
0.000713705
0.000681929
0.000640928
0.00119414
0.00117309
0.00114907
0.00112146
0.00108941
0.00105163
0.00100639
0.000952527
0.000891894
0.000832796
0.000787863
0.000763174
0.000755365
0.000758334
0.000767563
0.000779294
0.000791294
0.000803068
0.000813689
0.000822305
0.000828261
0.00083112
0.000830646
0.0008264
0.000817859
0.00080466
0.000786069
0.000760505
0.00072586
0.000679399
0.00127957
0.00126338
0.0012467
0.00122933
0.00121065
0.00118938
0.00116376
0.00113266
0.00109614
0.00105861
0.00102885
0.0010121
0.0010069
0.00100978
0.00101686
0.00102438
0.0010299
0.00103384
0.00103586
0.00103577
0.0010336
0.0010293
0.00102272
0.00101333
0.000999685
0.000982125
0.000960782
0.000933182
0.000897414
0.000850359
0.00155765
0.00155551
0.00155757
0.00155927
0.0015598
0.00155839
0.00155405
0.00154665
0.00153452
0.00151954
0.00150711
0.00149906
0.00149441
0.00149346
0.0014948
0.00149714
0.00149761
0.00149852
0.00149924
0.00150019
0.00150127
0.0015025
0.00150338
0.00150333
0.00149731
0.00148849
0.00148002
0.00146611
0.00144771
0.00142385
0.000194771
0.000203021
0.000201269
0.000196197
0.000189236
0.000181274
0.000172887
0.000164483
0.000156303
0.000148539
0.000141264
0.00013459
0.000128537
0.000123288
0.000118918
0.000115711
0.000113832
0.000113615
0.000115014
0.000117379
0.000119503
0.00012027
0.000118842
0.00011468
0.000107683
9.78109e-05
0.000408242
0.00036994
0.000354643
0.000366892
0.000727238
0.000822999
0.000798032
0.000744995
0.000686366
0.000630118
0.000579763
0.000535873
0.000497832
0.00046507
0.000436489
0.000411949
0.000390313
0.00037262
0.000358224
0.000348393
0.000342409
0.0003424
0.000345837
0.000352163
0.000359701
0.000366278
0.000366466
0.000355954
0.000336034
0.000306661
0.000288561
0.000303721
0.000379417
0.000377528
0.00113472
0.0013125
0.00132798
0.0012793
0.00120682
0.00112856
0.00105362
0.00098543
0.000924549
0.000871052
0.00082373
0.00078287
0.000746887
0.000718059
0.000695697
0.000681444
0.000673489
0.000673283
0.000673602
0.000674515
0.000676293
0.000677646
0.000669843
0.000647664
0.000608407
0.000553418
0.000491314
0.000433894
0.000434053
0.00046881
0.00135893
0.00160028
0.00167232
0.00165202
0.00159343
0.00151818
0.00143919
0.00136313
0.00129263
0.00122889
0.00117162
0.001122
0.00107903
0.00104589
0.00102223
0.00100993
0.00100555
0.00100684
0.0010037
0.00099697
0.000988897
0.000979713
0.000960764
0.000924129
0.000866749
0.000789678
0.000699981
0.000600342
0.000534678
0.000523483
0.00146478
0.00172055
0.00184335
0.00187664
0.00185249
0.00179588
0.00172604
0.00165365
0.00158372
0.00151826
0.00145877
0.00140732
0.00136408
0.00133298
0.00131424
0.00130951
0.00131283
0.00131702
0.00131099
0.00129663
0.00127881
0.00125846
0.00122792
0.00117806
0.00110608
0.00101232
0.000903111
0.000777368
0.000667647
0.000606602
0.00150853
0.00177128
0.00192719
0.00199761
0.00200752
0.00197903
0.00192634
0.00186488
0.00180321
0.00174226
0.00168687
0.00163927
0.00160133
0.00157779
0.001569
0.00157651
0.00158957
0.00159732
0.00158879
0.0015679
0.00154152
0.00151072
0.00146922
0.0014088
0.00132577
0.00122003
0.00109757
0.000955694
0.000818565
0.000717379
0.00150097
0.00175031
0.00192944
0.00203468
0.00208056
0.00208276
0.00205594
0.00201309
0.0019603
0.0019074
0.00186221
0.00182298
0.00179479
0.00178344
0.00178862
0.00181202
0.00183588
0.00184703
0.00183643
0.00181038
0.00177658
0.00173686
0.00168596
0.00161724
0.00152639
0.00141289
0.00128151
0.00112991
0.00097606
0.000845601
0.00142292
0.00165967
0.00186207
0.00200272
0.00208641
0.00212144
0.00212102
0.00210019
0.00206515
0.00202916
0.00199185
0.00196369
0.00194927
0.00195349
0.00197613
0.00201804
0.00205314
0.0020676
0.00205513
0.0020253
0.00198544
0.00193778
0.00187979
0.0018049
0.00170881
0.00159091
0.00145486
0.00129804
0.00113459
0.000982123
0.00128087
0.00150717
0.00173626
0.00191347
0.00203674
0.002105
0.00213231
0.00213548
0.00212235
0.00210351
0.00208239
0.00206878
0.0020693
0.00209129
0.00213466
0.0021963
0.00224334
0.00226099
0.00224734
0.00221457
0.00217022
0.00211764
0.00205409
0.00197382
0.00187445
0.00175484
0.0016177
0.00146054
0.00129205
0.00111956
0.00113743
0.00132543
0.00156023
0.00177529
0.00194166
0.00204274
0.00209984
0.0021295
0.00213968
0.00214062
0.00213783
0.00214153
0.00215944
0.00220064
0.00226656
0.00234814
0.00240677
0.00242887
0.00241543
0.00238048
0.0023343
0.00227845
0.00221086
0.00212748
0.00202542
0.00190627
0.00176973
0.00161169
0.00144231
0.00125314
0.00101706
0.00114649
0.00136261
0.00159664
0.0017988
0.00194129
0.00203158
0.00209051
0.00212532
0.00214737
0.00216391
0.00218618
0.00222303
0.00228427
0.00237395
0.00247525
0.00254641
0.00257172
0.00255829
0.00252437
0.0024778
0.00241978
0.00234974
0.00226522
0.00216409
0.00204541
0.00190823
0.00175113
0.00158327
0.00138177
0.000934133
0.0009955
0.00117044
0.00140023
0.00162383
0.00180072
0.00192981
0.00202365
0.00208336
0.00212758
0.00216456
0.00220611
0.00226227
0.00234522
0.00245868
0.00257913
0.00266233
0.00269456
0.00268291
0.00264911
0.00260335
0.00254345
0.00247281
0.00238911
0.00228977
0.00217054
0.00203413
0.00187961
0.00171106
0.00150503
0.000911975
0.000894182
0.00100854
0.0012088
0.00143467
0.00163474
0.00179666
0.00192335
0.00201627
0.00208395
0.00214208
0.00220379
0.00227991
0.00238564
0.00252225
0.00266109
0.00275545
0.00279615
0.00278875
0.00275671
0.00271267
0.00265277
0.00258325
0.00250056
0.00240162
0.00228319
0.00214864
0.00199927
0.00182663
0.00161559
0.000944058
0.000864087
0.000900681
0.00104578
0.00125163
0.00145845
0.00164364
0.00179814
0.00192098
0.00201826
0.0020991
0.00218167
0.00227807
0.00240711
0.00256593
0.00272238
0.00283092
0.00287827
0.00287657
0.00284862
0.00280717
0.00275109
0.00268194
0.0025995
0.00250134
0.00238543
0.00225417
0.00210831
0.00192987
0.00171314
0.00104124
0.000914564
0.00087071
0.000943632
0.00109863
0.00129021
0.00148369
0.00165751
0.00180487
0.00192918
0.00203757
0.00214189
0.00225869
0.002411
0.00259093
0.00276409
0.00288483
0.00294479
0.00295176
0.00292652
0.00288787
0.00283635
0.00276826
0.00268716
0.00259052
0.00247746
0.00235281
0.00220367
0.00201976
0.00179716
0.00120586
0.00104854
0.000942648
0.000919139
0.00100679
0.00115352
0.00133277
0.00151283
0.001677
0.00182359
0.00195692
0.00208669
0.00222369
0.00239857
0.00259827
0.00278735
0.00292089
0.00299263
0.00300872
0.00299119
0.00295578
0.00290531
0.00284322
0.00276477
0.00267086
0.00256511
0.00244224
0.00228733
0.00209681
0.00186787
0.00143882
0.00126266
0.0011136
0.001012
0.000992556
0.00107397
0.00121152
0.00137853
0.00154787
0.00170934
0.00186301
0.0020156
0.00217539
0.00237106
0.00258903
0.00279327
0.00294026
0.00302478
0.00305195
0.00304402
0.00301333
0.00296792
0.00290939
0.00283425
0.00274723
0.00264805
0.00252104
0.00235995
0.00216188
0.00192595
0.0017375
0.00155013
0.00137225
0.00121244
0.00110215
0.00107823
0.00114731
0.00127356
0.00143029
0.00159563
0.00176255
0.00193328
0.00211415
0.00232997
0.00256454
0.00278304
0.00294387
0.00304213
0.00308212
0.00308579
0.0030616
0.00302533
0.00296997
0.002901
0.00282126
0.00272314
0.00259103
0.00242281
0.00221624
0.00197253
0.0020921
0.00189892
0.00170091
0.00150029
0.00131765
0.00119316
0.00116036
0.00121942
0.00133997
0.00149333
0.00166329
0.00184527
0.00204405
0.00227763
0.00252637
0.00275782
0.00293263
0.00304545
0.00309976
0.00311665
0.00310294
0.00307843
0.00302908
0.00296772
0.0028935
0.00279194
0.00265385
0.00247753
0.00226143
0.00200904
0.00248473
0.00228921
0.00207697
0.0018475
0.00161293
0.00140546
0.00127046
0.00123524
0.00129292
0.00141494
0.0015739
0.00175852
0.00196908
0.00221472
0.00247585
0.00271791
0.00290638
0.00303419
0.00310436
0.00313644
0.00313736
0.00312321
0.00308744
0.00303916
0.00296402
0.00285584
0.00271069
0.00252555
0.00229904
0.00203708
0.0028907
0.00269493
0.00247351
0.00222434
0.00195408
0.0016862
0.0014638
0.00133094
0.00130382
0.0013715
0.00150372
0.00167998
0.00189265
0.00214178
0.00240821
0.00265956
0.00286075
0.00300326
0.00308857
0.00313898
0.00315679
0.00315424
0.00313294
0.00309076
0.00301905
0.00290817
0.0027589
0.00256641
0.0023299
0.00205801
0.00327885
0.00308535
0.00285981
0.00259891
0.00230625
0.00199837
0.00171141
0.0014929
0.00137756
0.00137223
0.00145912
0.00161269
0.00181531
0.00205734
0.002315
0.00256414
0.00277297
0.0029314
0.00304045
0.00310437
0.00313558
0.00314738
0.00314163
0.00311206
0.00304808
0.00294206
0.0027889
0.00259556
0.0023527
0.00207242
0.0036148
0.00342487
0.00320016
0.00293556
0.00263274
0.00230288
0.00197443
0.0016913
0.00149667
0.00141483
0.00143808
0.0015486
0.00172084
0.00193722
0.00217175
0.00240482
0.00261115
0.00277882
0.0029017
0.00298342
0.00303714
0.00307001
0.00308758
0.00307921
0.00303558
0.00294232
0.00279828
0.00260064
0.00236017
0.00207814
0.0038536
0.00367133
0.00345395
0.00319507
0.00289425
0.00255843
0.00220919
0.00188407
0.00162692
0.00147207
0.00142572
0.00146953
0.00158992
0.00176014
0.00194856
0.00214818
0.0023412
0.00250611
0.00263805
0.00274166
0.00282234
0.00288297
0.0029318
0.0029548
0.00294339
0.00288301
0.00276018
0.00258149
0.00234191
0.00206568
0.00394915
0.00378184
0.00358093
0.00333843
0.00305181
0.00272483
0.00237372
0.00202939
0.00173169
0.00151666
0.0013992
0.00136915
0.00141453
0.0015189
0.00165725
0.00181646
0.00197858
0.00212971
0.00226414
0.00238148
0.00248319
0.00257279
0.00265097
0.00270767
0.00273451
0.00271775
0.00264062
0.00249365
0.00228899
0.00203087
0.00387417
0.00373399
0.00356168
0.00334791
0.0030888
0.0027873
0.00245764
0.00212548
0.0018242
0.00158535
0.00142609
0.00134437
0.00133058
0.00137917
0.00147433
0.0015923
0.00171252
0.00183172
0.00194381
0.00204849
0.00214675
0.00223692
0.00231868
0.00238689
0.00243399
0.00244806
0.0024135
0.00231578
0.00214528
0.00193257
0.00365967
0.00356264
0.0034353
0.00326845
0.00305796
0.00280846
0.00253469
0.00225827
0.00200473
0.00179711
0.00164892
0.00155966
0.001529
0.00155142
0.00161472
0.00169452
0.00177148
0.00184682
0.00192042
0.00198892
0.00205108
0.00210779
0.00215854
0.00220033
0.00222797
0.00223294
0.00220203
0.0021213
0.0019762
0.00176968
0.00346001
0.00341546
0.00334176
0.00323323
0.00308701
0.00290976
0.00271538
0.0025196
0.00233897
0.00218556
0.00206902
0.00199546
0.00196682
0.00197677
0.00201569
0.00206612
0.00211185
0.00215847
0.00220294
0.00224203
0.00227566
0.00230433
0.00232691
0.00234048
0.00234105
0.00232321
0.00227607
0.0021851
0.0020359
0.00181676
0.00332624
0.00331047
0.00329196
0.0032478
0.00317458
0.00307479
0.00295489
0.00282967
0.00270854
0.00259923
0.00251022
0.00245061
0.00242001
0.00241587
0.00243105
0.00245783
0.00248373
0.0025151
0.00254601
0.00257635
0.00260513
0.00263168
0.00265439
0.00267043
0.00267611
0.00266868
0.00263953
0.00257628
0.00247019
0.00230855
0.0032718
0.00327605
0.00328001
0.00326278
0.00322677
0.00317597
0.00311215
0.00303871
0.00296264
0.00289002
0.00282971
0.00278312
0.00275112
0.00273533
0.00273257
0.00274381
0.00275869
0.00278057
0.00280696
0.0028377
0.00287084
0.00290448
0.00293671
0.00296574
0.00298858
0.0030067
0.00301326
0.00299974
0.00296928
0.00291668
0.000225141
0.000233216
0.00022946
0.000223191
0.000215158
0.000206082
0.000196584
0.000187102
0.000177892
0.000169169
0.000161007
0.000153535
0.00014675
0.000140884
0.000136027
0.000132574
0.000130827
0.000131677
0.000135382
0.000140524
0.000144705
0.000146322
0.000144423
0.000138459
0.00012815
0.000113195
9.40038e-05
0.000364038
0.000354033
8.85931e-05
0.00093989
0.00108223
0.00108877
0.0010328
0.000958568
0.000884405
0.000817605
0.000758989
0.000707795
0.000663112
0.000623063
0.000587578
0.000554422
0.000525854
0.000500251
0.000480451
0.000466215
0.000465445
0.000475484
0.000495009
0.00051718
0.000535485
0.000537726
0.000516223
0.000471857
0.000411466
0.000347108
0.000309785
0.000368295
0.000382109
0.00148887
0.00175114
0.00182132
0.0017887
0.00170945
0.00161429
0.00151937
0.00143084
0.00134995
0.00127698
0.00121018
0.00115022
0.00109414
0.00104622
0.00100474
0.000972903
0.000949623
0.000943095
0.000945083
0.000958306
0.000977194
0.000995112
0.000986967
0.000942074
0.000863937
0.000753123
0.000628119
0.00050724
0.0004763
0.00053704
0.00186356
0.00219052
0.00230192
0.00230711
0.00225012
0.0021632
0.00206686
0.0019708
0.00187896
0.00179342
0.00171397
0.00164252
0.00157693
0.00152244
0.00147789
0.00144568
0.00142164
0.00140899
0.00139867
0.00139901
0.00140523
0.00141323
0.00139336
0.00133212
0.00122513
0.0010775
0.000907572
0.000728369
0.000612468
0.000615299
0.00208615
0.00239578
0.00256846
0.00263284
0.00261464
0.00255035
0.00246729
0.00237751
0.00228743
0.00220075
0.00211967
0.00204738
0.00198275
0.00193242
0.00189522
0.00187111
0.00185024
0.00182998
0.00180554
0.00178911
0.00178251
0.00177977
0.00175039
0.00167625
0.00155158
0.00138049
0.00118006
0.000961926
0.000784237
0.00072085
0.00222307
0.00252133
0.00271794
0.00281758
0.00283897
0.00280798
0.00274704
0.00267222
0.00259276
0.00251312
0.00243894
0.00237393
0.0023193
0.00228205
0.00226007
0.00224965
0.00223281
0.00220246
0.00216296
0.00213178
0.00211281
0.00209853
0.0020607
0.00197916
0.00184538
0.00166179
0.00144339
0.00119988
0.000980613
0.000860277
0.00231231
0.00257477
0.00277244
0.00289809
0.00295604
0.00296105
0.00293146
0.00287657
0.00281132
0.00274399
0.00268457
0.00263344
0.00259626
0.00257962
0.00257899
0.00258634
0.0025717
0.00252944
0.00247498
0.00243038
0.00240047
0.00237608
0.00233285
0.00224703
0.0021098
0.001922
0.00169568
0.00144007
0.00119253
0.00102421
0.00231734
0.00253578
0.00273636
0.00288892
0.00298358
0.00302575
0.00302876
0.0030024
0.00296017
0.00291473
0.00286775
0.00283537
0.00282173
0.00283214
0.00285796
0.00288524
0.0028703
0.00281541
0.00274714
0.00269097
0.00265163
0.00261916
0.00257066
0.00248524
0.00234832
0.00216242
0.00193831
0.00167537
0.00141165
0.00120193
0.00221792
0.00240749
0.00261968
0.002803
0.0029355
0.00301674
0.00305446
0.00306001
0.00304506
0.0030226
0.00299908
0.00298861
0.00300283
0.00304438
0.00310206
0.00314927
0.00313204
0.00306498
0.00298512
0.00292008
0.0028717
0.00283263
0.00277961
0.00269516
0.00256505
0.0023865
0.00216238
0.0018989
0.00162772
0.00138596
0.00207227
0.00223052
0.0024434
0.00265187
0.00282312
0.00294562
0.00302052
0.00305956
0.00307476
0.00307978
0.00308358
0.00310187
0.00314555
0.00322219
0.00331473
0.00338038
0.00336027
0.00328285
0.0031944
0.00312302
0.0030683
0.00302218
0.00296494
0.00288181
0.00276167
0.00258707
0.00236795
0.00211019
0.00183686
0.00157165
0.00191874
0.00202766
0.00222819
0.00245446
0.00266018
0.00282193
0.00293594
0.00301059
0.00305823
0.00309317
0.00312764
0.00317872
0.00325445
0.00337038
0.00349742
0.0035789
0.0035586
0.00347361
0.00338034
0.00330453
0.0032441
0.00319223
0.00313137
0.00305066
0.00293403
0.00276791
0.00255663
0.00230817
0.00203688
0.00176057
0.00177849
0.00182189
0.00199104
0.00222303
0.00245663
0.00265544
0.0028085
0.0029205
0.00300235
0.00306961
0.00313709
0.00322242
0.00333347
0.00349014
0.00365204
0.00374785
0.00373018
0.00364204
0.00354607
0.00346834
0.00340421
0.00334635
0.00328307
0.00320299
0.00308873
0.00293143
0.00273078
0.0024935
0.00222377
0.00194019
0.00167494
0.00163388
0.00175524
0.001975
0.00222485
0.00245524
0.00264575
0.00279536
0.00291343
0.00301454
0.00311641
0.00323771
0.00338642
0.00358726
0.00378067
0.00388847
0.00387273
0.0037865
0.00369496
0.00361842
0.00355183
0.00348879
0.00342571
0.00334277
0.0032304
0.00308071
0.00289376
0.00266351
0.00239605
0.00210763
0.00163893
0.00150559
0.00155732
0.00173776
0.00198379
0.00223414
0.00245667
0.0026422
0.00279654
0.00293336
0.00307041
0.00322829
0.00341662
0.00366116
0.00388084
0.00400264
0.00399582
0.00391834
0.0038307
0.0037573
0.00368911
0.00362497
0.0035582
0.00347337
0.00336302
0.00322436
0.00304551
0.00281905
0.00255307
0.00226099
0.0016891
0.00149704
0.00144581
0.00155229
0.00176328
0.00201237
0.00225442
0.00246997
0.00265839
0.00283064
0.0030037
0.00319711
0.00342755
0.00371229
0.00395805
0.00409235
0.00409825
0.00403502
0.00395455
0.00388599
0.00381952
0.0037549
0.00368392
0.00359799
0.00349369
0.00336246
0.0031854
0.00296078
0.00269477
0.0023991
0.00183001
0.00159953
0.00146666
0.00147079
0.00160817
0.00182133
0.00205942
0.00229178
0.00250773
0.00271253
0.00292043
0.00314765
0.00342081
0.0037409
0.00400961
0.00415876
0.00418214
0.00413615
0.00406737
0.00400623
0.00394416
0.0038785
0.00380551
0.00372328
0.00362418
0.00349239
0.00331494
0.00308956
0.0028215
0.00252159
0.00209068
0.0018389
0.001645
0.00154417
0.00156442
0.00170565
0.00190147
0.00212692
0.00235671
0.00258672
0.0028253
0.00308502
0.00339669
0.0037466
0.00403513
0.00420141
0.0042481
0.00422507
0.00416871
0.00411783
0.00406061
0.00399976
0.00393355
0.00385388
0.00375256
0.00361721
0.0034355
0.00320628
0.00293392
0.00262856
0.00245993
0.00219996
0.00196711
0.00178343
0.00168382
0.0016921
0.00181613
0.00200095
0.00222139
0.00246286
0.0027231
0.00301362
0.00335671
0.00372736
0.00403241
0.00421766
0.00428979
0.0042912
0.00425468
0.00421639
0.0041669
0.00411652
0.00406221
0.00398665
0.00387965
0.00373618
0.00354712
0.00331135
0.00303245
0.00272035
0.00290669
0.00264554
0.00238887
0.00214772
0.00194962
0.00183345
0.00182951
0.00193945
0.00212024
0.00235202
0.00262003
0.00293352
0.00329711
0.00367672
0.00399511
0.00420044
0.00430054
0.00432877
0.00431465
0.00429035
0.00425678
0.00421873
0.00417129
0.00410245
0.00399201
0.00384299
0.00364709
0.00340388
0.00311714
0.00279737
0.00338713
0.00312702
0.00285549
0.00257694
0.00230988
0.00208952
0.00196187
0.00195365
0.00206567
0.00226515
0.00251884
0.00283864
0.00320905
0.00358667
0.00390814
0.00412997
0.00425924
0.0043196
0.00432838
0.00431928
0.00429939
0.00427218
0.00423289
0.00416932
0.00407002
0.00392511
0.00372834
0.00348048
0.0031868
0.00285945
0.00385323
0.0035943
0.00331382
0.00301241
0.00270153
0.00240769
0.00217587
0.00205254
0.00205884
0.00218929
0.00242515
0.00273667
0.0030832
0.0034364
0.00374901
0.00398354
0.00413834
0.00422763
0.00426029
0.00427224
0.00427329
0.00426362
0.00423959
0.00418783
0.00409714
0.00396084
0.00377575
0.00353244
0.00323719
0.00290504
0.0042581
0.00400128
0.00371716
0.00340414
0.00306872
0.00272928
0.0024228
0.00219924
0.00209997
0.00213287
0.00230475
0.00256051
0.00287023
0.00319889
0.00349109
0.0037278
0.00390746
0.00401975
0.004081
0.00411885
0.00414831
0.0041642
0.00416435
0.00413682
0.0040606
0.00393601
0.00376203
0.0035403
0.00325632
0.00292833
0.00455931
0.00430804
0.00402662
0.00371189
0.00336702
0.00300407
0.00265115
0.00235232
0.00215517
0.00208627
0.00215243
0.00233426
0.00258929
0.00286755
0.00312917
0.00336148
0.00355714
0.00368497
0.00377546
0.00384229
0.0039038
0.00395044
0.00398119
0.00398543
0.00394303
0.00384055
0.00368405
0.00346853
0.00321474
0.00291276
0.00472292
0.0044842
0.00421409
0.00390819
0.00356725
0.00319909
0.00282485
0.00248044
0.00221018
0.00204871
0.00200799
0.0020877
0.00226612
0.00249951
0.0027284
0.00295043
0.003138
0.00327629
0.00338439
0.00347604
0.00356109
0.00363253
0.00368977
0.00372366
0.00371787
0.00365377
0.00352534
0.00334398
0.00310246
0.00282203
0.00473276
0.00451826
0.00427218
0.00398895
0.0036676
0.00331393
0.00294561
0.00259271
0.00229329
0.00207997
0.00196703
0.00196327
0.00206675
0.00224468
0.00244533
0.00263995
0.00279866
0.00292753
0.00303294
0.00313072
0.00321607
0.00329077
0.00335395
0.00339828
0.00341105
0.0033764
0.00328216
0.00312082
0.00291731
0.0026834
0.00461004
0.00443666
0.00423324
0.0039923
0.00371157
0.00339741
0.00306754
0.00274847
0.00247154
0.00226088
0.0021246
0.00208345
0.00213504
0.0022566
0.0024184
0.00256772
0.00268617
0.00278456
0.00287174
0.00294801
0.00301213
0.00306672
0.00311093
0.00313939
0.0031426
0.00310778
0.00302191
0.00287738
0.00267222
0.00244289
0.00443536