/*--------------------------------*- C++ -*----------------------------------*\
| =========                 |                                                 |
| \\      /  F ield         | OpenFOAM: The Open Source CFD Toolbox           |
|  \\    /   O peration     | Version:  5.0                                   |
|   \\  /    A nd           | Web:      www.OpenFOAM.org                      |
|    \\/     M anipulation  |                                                 |
\*---------------------------------------------------------------------------*/
FoamFile
{
    version     2.0;
    format      ascii;
    class       volScalarField;
    location    "1450/air";
    object      epsilon;
}
// * * * * * * * * * * * * * * * * * * * * * * * * * * * * * * * * * * * * * //

dimensions      [0 2 -3 0 0 0 0];

internalField   nonuniform List<scalar> 
243000
(
2.99504
3.75553
4.14916
4.38984
4.48934
4.47516
4.36966
4.19554
3.97269
3.71987
3.44841
3.16858
2.88438
2.60875
2.3503
2.12476
1.9419
1.81435
1.73516
1.68319
1.62389
1.52675
1.37642
1.17884
1.00782
0.865801
0.170973
0.150323
0.118334
0.103189
1.52861
1.84029
1.92588
1.92901
1.87939
1.79462
1.68876
1.57226
1.4521
1.33293
1.217
1.10652
1.00245
0.9084
0.826144
0.75946
0.710316
0.682915
0.673897
0.675737
0.675825
0.662512
0.626947
0.567473
0.489739
0.408011
0.323018
0.24716
0.181426
0.149299
1.8858
2.24121
2.36832
2.38633
2.33474
2.23833
2.11412
1.97512
1.82994
1.68498
1.54333
1.40854
1.28229
1.16959
1.07285
0.997125
0.944754
0.920068
0.917017
0.924745
0.927812
0.91259
0.868466
0.792927
0.692966
0.579524
0.463516
0.348718
0.252822
0.188193
2.01328
2.41131
2.58992
2.64347
2.61479
2.53142
2.41137
2.26943
2.11612
1.9597
1.80477
1.65655
1.51771
1.39487
1.29137
1.21373
1.16454
1.14734
1.15228
1.16533
1.16928
1.14996
1.09668
1.00683
0.887437
0.749631
0.606399
0.461042
0.335976
0.245788
1.98524
2.38599
2.62488
2.73611
2.74895
2.69543
2.59534
2.46513
2.31699
2.16095
2.00334
1.85108
1.70813
1.58278
1.47934
1.40592
1.36509
1.35871
1.37266
1.39027
1.39359
1.36881
1.30627
1.20393
1.06869
0.911781
0.747026
0.57793
0.425912
0.31299
1.85963
2.25481
2.54049
2.70442
2.76696
2.75337
2.68324
2.57547
2.44224
2.29577
2.14392
1.99531
1.85533
1.73384
1.63617
1.57204
1.54357
1.55012
1.57349
1.59502
1.59684
1.56592
1.49437
1.38126
1.23349
1.06216
0.881025
0.694045
0.51879
0.385197
1.65726
2.05346
2.37274
2.58402
2.69613
2.72747
2.69509
2.61451
2.50175
2.37234
2.23285
2.09394
1.96251
1.85006
1.76266
1.71183
1.69863
1.71922
1.75214
1.77718
1.77708
1.73995
1.66001
1.53772
1.38024
1.19837
1.00527
0.80527
0.612745
0.459855
1.41435
1.81122
2.15219
2.40195
2.56004
2.63571
2.64291
2.596
2.51039
2.39979
2.27649
2.15211
2.03359
1.93408
1.86047
1.82593
1.8298
1.86496
1.90726
1.93562
1.93359
1.89073
1.80329
1.67338
1.50852
1.31923
1.11793
0.909482
0.70434
0.534648
1.18781
1.56955
1.91081
2.18481
2.3799
2.49584
2.54118
2.52921
2.4731
2.38769
2.2846
2.17565
2.07291
1.98898
1.93173
1.91551
1.93723
1.98699
2.0384
2.07004
2.06646
2.01871
1.925
1.78899
1.61875
1.42464
1.21863
1.00402
0.789833
0.607477
0.992792
1.3431
1.68206
1.96513
2.17716
2.32491
2.4044
2.42609
2.4006
2.34143
2.26037
2.17133
2.08513
2.01816
1.97875
1.98185
2.02155
2.08553
2.14567
2.1807
2.17625
2.12479
2.02626
1.88572
1.71192
1.51552
1.30637
1.08727
0.867115
0.676738
0.8475
1.13363
1.46136
1.75247
1.98086
2.14493
2.24744
2.29812
2.30206
2.26931
2.21131
2.14224
2.0742
2.02491
2.00391
2.02628
2.08368
2.16116
2.22957
2.2682
2.2638
2.21
2.10827
1.96487
1.7896
1.59188
1.3805
1.15893
0.935422
0.740539
0.773928
0.95386
1.24969
1.54314
1.7873
1.96929
2.08973
2.15749
2.18605
2.17819
2.14283
2.09392
2.04417
2.01242
2.00958
2.05047
2.1244
2.21477
2.29099
2.33347
2.33015
2.27552
2.17236
2.02798
1.8524
1.65429
1.44184
1.21902
0.99695
0.799202
0.795349
0.833379
1.05804
1.33796
1.59365
1.79423
1.93422
2.02031
2.06394
2.07498
2.06017
2.03052
1.99847
1.98381
1.99804
2.05608
2.14484
2.247
2.33102
2.37765
2.37648
2.32264
2.21987
2.07647
1.90133
1.70375
1.49106
1.26797
1.05076
0.852196
0.928781
0.81409
0.915669
1.14674
1.40104
1.61766
1.77825
1.88409
1.94439
1.96897
1.96896
1.95617
1.94047
1.94169
1.97151
2.04486
2.14719
2.25897
2.35022
2.40206
2.40405
2.35277
2.25266
2.11099
1.93752
1.74129
1.52919
1.30812
1.09719
0.899355
1.17928
0.95295
0.876202
0.999182
1.21956
1.44129
1.62055
1.74701
1.82549
1.86499
1.87665
1.8753
1.8735
1.88856
1.9321
2.01854
2.13201
2.25324
2.3518
2.40837
2.41414
2.36739
2.27094
2.13257
1.96199
1.76793
1.55739
1.34398
1.13797
0.941152
1.48398
1.23012
1.00108
0.948705
1.07675
1.2748
1.46305
1.60849
1.706
1.76169
1.78616
1.79359
1.80092
1.82704
1.88192
1.97893
2.10133
2.22994
2.33496
2.39765
2.40823
2.36565
2.27465
2.14177
1.97559
1.78483
1.57939
1.3748
1.17359
0.977954
1.82379
1.58012
1.27922
1.05505
1.0206
1.14242
1.31462
1.47068
1.58578
1.65824
1.6965
1.7139
1.72698
1.7599
1.82313
1.92795
2.05699
2.19138
2.30231
2.37152
2.38801
2.35176
2.26655
2.13946
1.97899
1.79309
1.59826
1.40136
1.20452
1.01002
2.20184
1.95399
1.64482
1.3219
1.10719
1.085
1.19551
1.34112
1.46688
1.55479
1.60716
1.63538
1.65536
1.69009
1.75809
1.86768
2.00099
2.13953
2.25572
2.33168
2.3552
2.32645
2.24861
2.12857
1.97445
1.79874
1.61395
1.42403
1.2311
1.03756
2.61869
2.36081
2.0587
1.69612
1.34979
1.14962
1.13786
1.23546
1.35517
1.45304
1.51835
1.55763
1.58531
1.62236
1.68978
1.80056
1.93561
2.07662
2.19727
2.27991
2.31144
2.29116
2.22257
2.11066
1.9656
1.80232
1.62683
1.44319
1.25363
1.06075
3.07287
2.79837
2.48356
2.11297
1.704
1.35274
1.17793
1.17748
1.262
1.35735
1.43142
1.48085
1.51649
1.55701
1.62256
1.72962
1.86346
2.00508
2.12913
2.21821
2.25845
2.24759
2.18943
2.08768
1.95665
1.80467
1.63755
1.4594
1.27251
1.07974
3.56113
3.26479
2.93175
2.55389
2.11723
1.66966
1.33395
1.19337
1.20402
1.27553
1.34947
1.40607
1.44904
1.49362
1.55862
1.65913
1.78791
1.92787
2.05387
2.14874
2.19803
2.19749
2.1512
2.06538
1.94797
1.80649
1.6469
1.47335
1.28828
1.09491
4.07825
3.75769
3.41322
3.01861
2.56047
2.05693
1.59557
1.29997
1.199
1.21861
1.27776
1.33549
1.38374
1.4323
1.49757
1.59327
1.71571
1.85066
1.97636
2.07563
2.13441
2.14664
2.11516
2.04441
1.94014
1.80873
1.65584
1.48595
1.30174
1.10686
4.61864
4.27987
3.91979
3.50234
3.02039
2.47949
1.93241
1.49601
1.2608
1.19869
1.22369
1.27289
1.32236
1.37382
1.43964
1.5318
1.64892
1.77943
1.9045
2.00739
2.07485
2.09933
2.08172
2.02543
1.93404
1.81242
1.66586
1.49858
1.31403
1.11647
5.18882
4.84
4.44712
3.99964
3.49028
2.9187
2.31338
1.76597
1.394
1.22698
1.19645
1.22421
1.26868
1.32062
1.38657
1.47597
1.58859
1.71511
1.83926
1.94524
2.02045
2.05658
2.05211
2.00979
1.93077
1.8191
1.67872
1.51357
1.32715
1.12517
5.76169
5.38741
4.96999
4.4989
3.96578
3.36833
2.72277
2.09445
1.59963
1.31502
1.20887
1.19994
1.23098
1.2796
1.3448
1.43205
1.54092
1.66382
1.78682
1.89518
1.97675
2.02315
2.03136
2.00146
1.93401
1.83223
1.69818
1.5345
1.34487
1.13592
6.33264
5.9396
5.50384
5.01464
4.46374
3.84727
3.17416
2.489
1.89209
1.48734
1.28835
1.22636
1.23319
1.27422
1.33813
1.42451
1.53085
1.6506
1.77182
1.88123
1.96717
2.02075
2.0386
2.01947
1.96209
1.8682
1.73836
1.57359
1.37621
1.15482
6.97221
6.56655
6.11822
5.61762
5.05698
4.43177
3.74465
3.02361
2.34786
1.82798
1.52155
1.38975
1.36203
1.39153
1.4565
1.54563
1.65129
1.76762
1.88443
1.98981
2.0732
2.12656
2.14617
2.12968
2.07466
1.98128
1.84843
1.67443
1.46033
1.21261
7.84296
7.43578
6.98892
6.49815
5.95837
5.36186
4.70183
3.98883
3.27491
2.6629
2.24875
2.0382
1.97274
1.99495
2.06971
2.16855
2.27356
2.38008
2.47901
2.56119
2.619
2.64711
2.64273
2.60191
2.52117
2.40003
2.23653
2.02475
1.76039
1.44412
9.64202
9.27994
8.91715
8.54985
8.16656
7.74461
7.25587
6.69064
6.06361
5.45785
5.00269
4.75466
4.6761
4.71321
4.81276
4.92217
5.00508
5.06614
5.09939
5.101
5.07148
5.00992
4.91495
4.7806
4.58963
4.35124
4.07282
3.73126
3.31866
2.82478
17.3316
17.2598
17.3285
17.3849
17.4021
17.3536
17.2083
16.9626
16.5652
16.0797
15.6802
15.4224
15.2733
15.2395
15.2781
15.3498
15.3655
15.3953
15.4192
15.45
15.485
15.5238
15.5513
15.5491
15.3639
15.094
14.8369
14.4222
13.8866
13.2146
5.33154
7.03253
7.95116
8.50633
8.76448
8.78503
8.61925
8.3152
7.90898
7.43376
6.911
6.37005
5.82551
5.31221
4.84767
4.46721
4.18478
4.02779
3.98
3.96831
3.87259
3.60282
3.13413
2.51254
1.8378
1.20975
0.17433
0.150309
0.126334
0.112372
3.4012
4.01065
4.42316
4.66989
4.77289
4.75476
4.63746
4.44656
4.20491
3.93197
3.64353
3.35371
3.07446
2.81926
2.60177
2.43732
2.33696
2.31428
2.36763
2.44813
2.47308
2.38064
2.15408
1.81947
1.42225
1.0223
0.641041
0.346273
0.261069
0.202944
2.97168
3.41241
3.70592
3.88062
3.9561
3.94663
3.86242
3.71901
3.53224
3.31756
3.08852
2.85774
2.6358
2.43587
2.26986
2.15388
2.09595
2.10589
2.18039
2.27759
2.32706
2.27492
2.10451
1.82801
1.48949
1.13009
0.791611
0.489532
0.32716
0.258952
2.66874
3.04251
3.30631
3.46994
3.55257
3.56609
3.51499
3.40955
3.26232
3.08651
2.89434
2.69814
2.5078
2.33791
2.20073
2.11252
2.07989
2.10956
2.19238
2.28978
2.34239
2.3037
2.15568
1.90963
1.59953
1.25955
0.928013
0.618355
0.406969
0.287197
2.37146
2.68966
2.95098
3.1289
3.23522
3.27838
3.26175
3.1917
3.07944
2.93706
2.7761
2.60882
2.44503
2.30074
2.18815
2.12433
2.11438
2.16102
2.24955
2.34329
2.39108
2.35448
2.21769
1.9909
1.70064
1.37647
1.0525
0.740434
0.499463
0.340206
2.04496
2.326
2.59512
2.79733
2.93392
3.00938
3.02648
2.9903
2.91074
2.79946
2.66791
2.52823
2.39017
2.27071
2.18245
2.14307
2.15568
2.21866
2.31202
2.40034
2.44034
2.40087
2.27019
2.05647
1.78276
1.47428
1.1605
0.852057
0.595416
0.408996
1.69292
1.95206
2.23646
2.46535
2.63377
2.74128
2.78948
2.78519
2.73639
2.65495
2.5522
2.4397
2.32765
2.23305
2.16953
2.15515
2.19029
2.26931
2.36693
2.4493
2.48063
2.43592
2.30803
2.10415
1.84495
1.55226
1.25148
0.951529
0.688897
0.485537
1.33734
1.58211
1.8828
2.1373
2.33584
2.47172
2.54612
2.56995
2.5512
2.49931
2.42499
2.33945
2.25344
2.18402
2.14545
2.15621
2.21353
2.30764
2.40926
2.48577
2.50859
2.45879
2.33119
2.13508
1.88906
1.61215
1.32574
1.03776
0.777057
0.564349
1.05837
1.27263
1.5608
1.82944
2.04897
2.20278
2.29521
2.34341
2.35305
2.33167
2.28674
2.22808
2.16771
2.12345
2.10982
2.14525
2.22357
2.33144
2.43633
2.50802
2.52294
2.46675
2.33931
2.15109
1.9176
1.65634
1.38495
1.1108
0.857597
0.64192
0.875522
1.04756
1.31114
1.57439
1.79177
1.94806
2.0512
2.11889
2.15236
2.157
2.1394
2.10793
2.07244
2.05284
2.06324
2.12243
2.22135
2.34025
2.44713
2.51519
2.52222
2.46087
2.33421
2.15298
1.933
1.68736
1.43113
1.17136
0.928891
0.715577
0.757638
0.880534
1.11138
1.36629
1.5831
1.73124
1.8316
1.9112
1.96259
1.98788
1.99225
1.98247
1.97037
1.97401
2.00686
2.08839
2.20499
2.33537
2.44471
2.508
2.50896
2.44459
2.3198
2.14571
1.93789
1.70765
1.4662
1.22083
0.991086
0.783162
0.694751
0.758087
0.9491
1.18811
1.40531
1.55381
1.65327
1.73065
1.7889
1.82795
1.84894
1.85698
1.86443
1.88859
1.94226
2.04396
2.17571
2.31398
2.42461
2.486
2.48305
2.41877
2.29724
2.13149
1.93499
1.71928
1.49202
1.26098
1.0446
0.844157
0.702865
0.68712
0.820991
1.03137
1.24413
1.40009
1.50567
1.58248
1.63947
1.68153
1.71185
1.73343
1.75698
1.79869
1.87102
1.9901
2.13423
2.27839
2.38996
2.44988
2.4454
2.38301
2.26762
2.11162
1.92692
1.7243
1.51066
1.29534
1.09096
0.898569
0.785904
0.694132
0.739686
0.896598
1.09674
1.25879
1.37719
1.45785
1.51393
1.5543
1.58567
1.61526
1.6507
1.70652
1.79461
1.92784
2.08126
2.22928
2.34167
2.40101
2.39722
2.33889
2.23233
2.08711
1.91453
1.724
1.52464
1.32464
1.13119
0.946795
0.940183
0.80355
0.74559
0.820344
0.973463
1.12942
1.25933
1.34792
1.40504
1.44465
1.47579
1.5061
1.54835
1.61421
1.71454
1.85834
2.01798
2.16814
2.28122
2.34112
2.34012
2.28811
2.1921
2.05884
1.89893
1.72124
1.53686
1.35001
1.1662
0.989295
1.1568
1.00399
0.873941
0.827294
0.903373
1.02734
1.15142
1.2468
1.30832
1.34909
1.38041
1.41015
1.45291
1.52401
1.6325
1.78308
1.94604
2.09681
2.2105
2.27226
2.27611
2.23214
2.14769
2.02796
1.88168
1.719
1.54786
1.37239
1.19681
1.02658
1.4342
1.27706
1.11333
0.968404
0.917577
0.970777
1.06256
1.15483
1.22116
1.26477
1.29718
1.32682
1.36787
1.43839
1.55051
1.70403
1.8677
2.0179
2.13216
2.19705
2.20762
2.17322
2.1014
1.99654
1.86597
1.71756
1.55828
1.3925
1.22372
1.05913
1.77324
1.61024
1.43482
1.23414
1.06478
0.995739
1.0202
1.08223
1.14514
1.19056
1.22452
1.25457
1.29444
1.36027
1.4714
1.62411
1.78625
1.93506
2.0499
2.11915
2.13817
2.11485
2.05672
1.96891
1.85367
1.71786
1.56894
1.41111
1.24762
1.08747
2.17248
2.00076
1.81607
1.58899
1.3394
1.14129
1.05217
1.04918
1.0881
1.12852
1.16235
1.19279
1.232
1.29476
1.3997
1.54799
1.70688
1.85395
1.96951
2.04443
2.07367
2.06348
2.02146
1.94895
1.84721
1.7222
1.58135
1.42935
1.26941
1.1123
2.63125
2.44769
2.24808
2.00219
1.70688
1.40764
1.18848
1.08538
1.06655
1.0856
1.11336
1.14259
1.18151
1.24325
1.34389
1.48417
1.63905
1.78471
1.90172
1.98428
2.02647
2.03008
2.00253
1.94113
1.84998
1.73395
1.59824
1.4492
1.29042
1.13468
3.15381
2.95602
2.737
2.4688
2.14011
1.77154
1.43615
1.21042
1.10258
1.07514
1.08489
1.10849
1.14726
1.21064
1.31131
1.44912
1.60251
1.74855
1.86947
1.95813
2.00997
2.02564
2.01007
1.96094
1.87725
1.76316
1.62596
1.47459
1.31301
1.15569
3.75233
3.54151
3.30067
3.00375
2.63994
2.21767
1.79006
1.44215
1.22268
1.12123
1.0935
1.10321
1.14129
1.20906
1.31788
1.46239
1.62137
1.77187
1.89752
1.99061
2.04919
2.07373
2.06681
2.02369
1.94235
1.82515
1.67867
1.51452
1.3426
1.17819
4.46778
4.24224
3.97645
3.6452
3.24119
2.76878
2.26563
1.80749
1.46652
1.26632
1.17909
1.16236
1.19708
1.27721
1.40676
1.57293
1.74918
1.9099
2.04269
2.14007
2.20101
2.22605
2.21641
2.16597
2.07444
1.94338
1.77742
1.5902
1.39292
1.20985
5.37363
5.13678
4.84697
4.48235
4.03866
3.51933
2.95096
2.39539
1.93131
1.61419
1.44554
1.38942
1.4206
1.52631
1.70363
1.91869
2.12936
2.3144
2.45612
2.55019
2.59817
2.60134
2.56115
2.47679
2.34867
2.17854
1.97074
1.73761
1.49471
1.27134
6.64505
6.40483
6.10207
5.71963
5.25733
4.71674
4.11138
3.4854
2.91337
2.47873
2.22072
2.12476
2.16905
2.33998
2.62196
2.93768
3.21239
3.42679
3.56244
3.61592
3.5968
3.51344
3.376
3.19061
2.96144
2.69227
2.38699
2.05785
1.71817
1.40982
8.70853
8.49303
8.22125
7.88186
7.47969
7.01204
6.47429
5.88538
5.30476
4.84172
4.57744
4.52866
4.69272
5.05634
5.57541
6.07942
6.43405
6.63149
6.65955
6.52285
6.25533
5.89318
5.46617
4.99389
4.48954
3.96197
3.41352
2.85283
2.29075
1.77695
12.6818
12.5739
12.4554
12.3261
12.2046
12.0815
11.9139
11.6898
11.4434
11.3091
11.4002
11.7689
12.406
13.2862
14.27
15.0475
15.4281
15.4349
15.0503
14.3318
13.3702
12.2661
11.089
9.88063
8.67128
7.48337
6.31695
5.16384
4.02899
2.97741
21.3747
21.4794
21.7189
22.0827
22.6435
23.3605
24.087
24.77
25.3808
26.118
27.1135
28.4138
29.9365
31.6051
33.1029
34.0772
34.3831
34.0207
32.9468
31.2945
29.2299
26.9336
24.522
22.0509
19.5594
17.1005
14.6779
12.2412
9.80079
7.44354
36.2406
36.5466
37.4877
38.8174
40.5644
42.4359
44.0928
45.5275
46.6508
47.9261
49.49
51.3018
53.085
54.7489
55.8311
56.2539
56.1358
55.402
54.0139
52.0938
49.7903
47.2681
44.6197
41.8563
38.9303
35.8498
32.6065
29.1133
25.3894
21.505
42.7757
43.1382
44.7738
46.7656
48.4967
49.7082
50.4844
51.0128
51.4834
52.1052
53.0701
54.1499
54.9473
55.4051
55.0534
54.2664
53.5574
52.6619
51.643
50.5443
49.4543
48.4295
47.5145
46.712
45.8987
44.9497
43.8713
42.646
41.2061
39.4906
8.23633
10.6618
11.7839
12.5245
12.884
12.9099
12.6732
12.2408
11.6616
10.9833
10.2348
9.45916
8.67222
7.93031
7.25937
6.72298
6.35675
6.27294
6.4913
6.8073
6.87341
6.4856
5.62294
4.41957
3.09627
1.8705
0.931216
0.144004
0.128467
0.503346
4.91986
5.61587
5.99733
6.26359
6.38185
6.35708
6.21056
5.97262
5.66934
5.32381
4.95635
4.58291
4.22034
3.88334
3.59698
3.3834
3.27724
3.34107
3.60693
3.94125
4.12568
4.03273
3.65808
3.07431
2.37229
1.63545
0.972656
0.476895
0.310128
0.237013
4.43851
4.89027
5.16459
5.32591
5.37842
5.33408
5.20498
5.00727
4.75783
4.47352
4.17093
3.86405
3.56796
3.29756
3.0735
2.91844
2.85701
2.94136
3.19404
3.50801
3.70823
3.68321
3.43156
2.98906
2.41186
1.78077
1.17582
0.661614
0.391846
0.280121
4.14408
4.49793
4.7483
4.90046
4.95708
4.93095
4.82903
4.66478
4.45163
4.20391
3.93667
3.66354
3.39917
3.16112
2.96952
2.84654
2.81273
2.91107
3.14788
3.42828
3.61441
3.60974
3.40395
3.02156
2.51747
1.9434
1.36825
0.841715
0.495934
0.319316
3.84001
4.11028
4.35626
4.53021
4.6182
4.62816
4.56305
4.43499
4.25734
4.04366
3.80829
3.56485
3.32919
3.12014
2.95829
2.86646
2.86226
2.97747
3.20226
3.45283
3.6097
3.59975
3.41088
3.06696
2.60987
2.08055
1.53513
1.01096
0.618598
0.385438
3.48848
3.67853
3.92673
4.13168
4.2633
4.31705
4.29561
4.20773
4.06806
3.8903
3.68868
3.4771
3.27186
3.09407
2.96471
2.90765
2.93627
3.07129
3.28662
3.50453
3.62877
3.60409
3.42021
3.09925
2.67698
2.18639
1.67216
1.1634
0.74792
0.471401
3.09463
3.21733
3.4613
3.69607
3.87328
3.97378
3.9981
3.95379
3.85475
3.7155
3.55068
3.37403
3.20256
3.05961
2.96663
2.94861
3.01315
3.16914
3.37615
3.56243
3.65308
3.60708
3.41855
3.11319
2.71929
2.26344
1.78096
1.29482
0.875255
0.569245
2.66066
2.73516
2.97422
3.23514
3.45393
3.59959
3.66788
3.66839
3.61179
3.51318
3.38746
3.24844
3.11464
3.00985
2.95712
2.9818
3.08439
3.26067
3.45921
3.61524
3.67284
3.60227
3.40698
3.10943
2.73991
2.31572
1.86468
1.40493
0.993818
0.671491
2.18888
2.23837
2.48364
2.76936
3.02124
3.20591
3.31475
3.3563
3.34242
3.28523
3.20009
3.10071
3.00721
2.94436
2.93487
3.00478
3.14577
3.34013
3.52913
3.65653
3.68299
3.58837
3.38538
3.09448
2.74215
2.34749
1.92656
1.49506
1.09966
0.770916
1.77582
1.8074
2.03831
2.32782
2.59742
2.81093
2.95241
3.02971
3.05438
3.03764
2.99309
2.93433
2.88301
2.86474
2.90006
3.01665
3.19463
3.40356
3.58149
3.68216
3.67816
3.56386
3.35444
3.07017
2.73347
2.36345
1.97046
1.56749
1.19135
0.863058
1.44878
1.45038
1.65515
1.93718
2.21288
2.438
2.59845
2.70291
2.75936
2.77852
2.77281
2.75425
2.74607
2.77244
2.85412
3.01769
3.22881
3.44787
3.61306
3.6893
3.65968
3.52888
3.3154
3.03857
2.71692
2.36733
2.00045
1.6255
1.26866
0.946307
1.20824
1.16707
1.33409
1.59714
1.86966
2.0998
2.27196
2.39213
2.47028
2.51824
2.54644
2.56623
2.59967
2.66989
2.79841
3.00668
3.24599
3.47027
3.62343
3.67683
3.62589
3.48437
3.26967
3.00149
2.69478
2.364
2.0213
1.67336
1.33325
1.01972
1.05321
0.96139
1.0772
1.30727
1.56696
1.79684
1.97614
2.10717
2.20058
2.26711
2.32226
2.37563
2.44765
2.56021
2.73427
2.98379
3.24867
3.47455
3.61181
3.6444
3.57758
3.43039
3.21861
2.96083
2.66964
2.35801
2.03905
1.7108
1.38605
1.08259
0.991342
0.847149
0.89484
1.07237
1.30612
1.52881
1.71171
1.85045
1.95474
2.03579
2.10822
2.18827
2.29389
2.44644
2.66291
2.94864
3.22996
3.45295
3.57783
3.59354
3.5166
3.36861
3.16406
2.91899
2.64461
2.35411
2.05289
1.73965
1.42818
1.13499
1.0196
0.84979
0.812093
0.911061
1.09657
1.2994
1.47953
1.62279
1.73476
1.82635
1.91247
2.00997
2.14223
2.33145
2.58556
2.90137
3.19323
3.41061
3.52432
3.52762
3.44613
3.30203
3.10912
2.8795
2.62492
2.35154
2.06219
1.76118
1.46087
1.17756
1.12785
0.950311
0.850897
0.853078
0.961653
1.12121
1.28466
1.42597
1.54198
1.64073
1.73693
1.84681
1.99726
2.21777
2.50381
2.84318
3.14062
3.35121
3.45575
3.452
3.37132
3.23602
3.05903
2.84885
2.61159
2.34909
2.06854
1.77681
1.48549
1.21131
1.33224
1.15166
1.01567
0.931583
0.931594
1.01919
1.14021
1.26573
1.37903
1.48075
1.58361
1.70287
1.86431
2.10889
2.42061
2.77751
3.07732
3.28171
3.37996
3.37494
3.3013
3.18023
3.02375
2.83057
2.60385
2.34809
2.07342
1.78806
1.50349
1.23738
1.64104
1.45188
1.29251
1.14823
1.04495
1.01732
1.06931
1.15465
1.252
1.34974
1.4551
1.58062
1.75327
2.01101
2.34213
2.71182
3.01312
3.21399
3.30996
3.31101
3.25246
3.15225
3.00908
2.82412
2.60239
2.351
2.07883
1.79671
1.51652
1.25706
2.05704
1.85039
1.66671
1.47985
1.29632
1.156
1.09758
1.11256
1.17253
1.25444
1.35641
1.48608
1.66956
1.93561
2.28126
2.66109
2.96589
3.16901
3.26863
3.2873
3.24725
3.16062
3.02552
2.84128
2.61822
2.36376
2.0885
1.8053
1.52654
1.27195
2.58479
2.35042
2.13404
1.90697
1.66295
1.42635
1.25002
1.1642
1.15803
1.20766
1.29862
1.43076
1.62562
1.90633
2.26515
2.65725
2.97261
3.18559
3.30094
3.33691
3.31178
3.23298
3.10023
2.91081
2.66988
2.39797
2.10945
1.81829
1.53649
1.28399
3.23727
2.96536
2.70618
2.43269
2.13392
1.8197
1.53571
1.33611
1.24041
1.23272
1.2972
1.42833
1.64493
1.95419
2.34388
2.75899
3.09767
3.32672
3.45649
3.5041
3.48473
3.40109
3.25596
3.04939
2.78404
2.47704
2.15679
1.84486
1.55183
1.29633
4.04476
3.72765
3.41716
3.08951
2.73382
2.35191
1.977
1.66718
1.46747
1.38602
1.41193
1.54191
1.7885
2.1479
2.59928
3.06643
3.44039
3.69225
3.83465
3.88402
3.85123
3.73953
3.55622
3.30602
2.99523
2.63849
2.26457
1.90634
1.58526
1.31599
5.07251
4.70604
4.34088
3.95669
3.54463
3.10291
2.65443
2.25006
1.94733
1.78342
1.76291
1.89797
2.19615
2.6498
3.21989
3.78529
4.21349
4.49623
4.64244
4.66974
4.58465
4.39905
4.12873
3.78652
3.38538
2.94393
2.48688
2.05465
1.67023
1.36134
6.45736
6.04659
5.63649
5.20946
4.75829
4.27935
3.78772
3.32371
2.94642
2.71809
2.66966
2.84166
3.24877
3.87391
4.66652
5.39716
5.90835
6.21753
6.336
6.27779
6.05661
5.7023
5.24737
4.71949
4.14203
3.53906
2.93736
2.37185
1.87689
1.48492
8.50134
8.07516
7.6586
7.23683
6.80338
6.35386
5.89799
5.46628
5.11359
4.91942
4.94355
5.26915
5.91791
6.86202
8.02789
9.00474
9.61092
9.90236
9.89743
9.60395
9.06972
8.35488
7.52235
6.62592
5.70393
4.78825
3.90528
3.08694
2.3671
1.79221
11.9017
11.5365
11.2012
10.8939
10.6102
10.3478
10.1148
9.93319
9.84507
9.943
10.3167
11.0691
12.2156
13.699
15.3874
16.6417
17.2916
17.4456
17.104
16.3134
15.169
13.7791
12.2523
10.6758
9.10983
7.59973
6.16899
4.83875
3.643
2.65899
18.2016
18.0377
17.9041
17.8933
17.9906
18.1966
18.5027
18.9137
19.4514
20.2153
21.3069
22.8245
24.7411
26.9257
29.108
30.4882
31.0255
30.8423
29.9335
28.4082
26.415
24.1124
21.6289
19.07
16.5151
14.0328
11.6579
9.37574
7.22428
5.3387
29.5345
29.7031
30.1086
30.6475
31.3831
32.3103
33.3691
34.5332
35.8002
37.3043
39.171
41.432
43.9696
46.4911
48.5404
49.3441
49.3689
48.6184
47.179
45.1489
42.6973
39.9675
37.029
33.9107
30.6231
27.2176
23.8026
20.3042
16.763
13.3779
44.0552
44.257
45.3816
46.9498
48.6698
50.3258
51.8043
53.1455
54.4258
55.9156
57.7861
59.8841
61.8576
63.2123
63.5232
62.297
61.0725
59.543
57.9182
56.1476
54.3981
52.7363
51.1404
49.4851
47.5913
45.2858
42.3972
39.0571
35.2879
31.2205
47.2569
48.0391
49.8171
51.9055
53.763
55.1232
56.0196
56.6539
57.2579
58.0393
59.0669
60.1107
60.7728
60.7462
59.464
56.9784
55.0659
53.2304
51.7323
50.5026
49.6538
49.1713
49.0079
49.0413
49.0654
48.8948
48.4695
47.7564
46.7196
45.4104
11.4588
14.5865
15.8638
16.6096
16.9865
16.9827
16.66
16.0945
15.3432
14.4632
13.4843
12.4621
11.409
10.4065
9.49014
8.7727
8.36423
8.63705
9.69443
10.9092
11.4159
10.8929
9.43965
7.39068
5.12113
2.99482
1.37729
0.147695
0.1279
0.511478
6.63377
7.43439
7.79934
8.00851
8.10051
8.04791
7.8564
7.55619
7.17743
6.74408
6.27962
5.80022
5.33171
4.88793
4.51051
4.22797
4.1296
4.4133
5.16452
6.00529
6.45074
6.33156
5.73679
4.82477
3.74285
2.56483
1.46399
0.586137
0.282342
0.242198
6.06727
6.50446
6.7418
6.86669
6.8887
6.80831
6.63201
6.3748
6.05491
5.68889
5.29568
4.88918
4.49353
4.12658
3.82207
3.6083
3.55092
3.8158
4.45537
5.17301
5.59803
5.57758
5.18107
4.53425
3.67978
2.70174
1.73185
0.869813
0.419117
0.26635
5.78584
6.06721
6.28648
6.42071
6.45727
6.39981
6.25233
6.02828
5.74312
5.41126
5.05021
4.67348
4.30704
3.97275
3.7035
3.52721
3.50413
3.77777
4.35331
4.96616
5.34955
5.35057
5.037
4.47825
3.73569
2.86926
1.97146
1.1183
0.562498
0.318617
5.48049
5.65652
5.88023
6.05256
6.13434
6.12362
6.01756
5.83079
5.57993
5.27961
4.9469
4.59792
4.25832
3.95243
3.71673
3.58034
3.60255
3.90071
4.43391
4.97559
5.27859
5.26792
4.97552
4.46159
3.79232
3.00489
2.16836
1.34199
0.722878
0.399344
5.09135
5.1904
5.41886
5.63843
5.78047
5.82593
5.7723
5.63048
5.41984
5.15632
4.85815
4.54044
4.23193
3.95984
3.76291
3.67542
3.75412
4.08689
4.58615
5.04547
5.28133
5.23502
4.93592
4.44558
3.82573
3.10186
2.32313
1.53475
0.89109
0.503228
4.63601
4.67362
4.89924
5.16012
5.36221
5.46657
5.47216
5.38234
5.21861
4.99882
4.7432
4.46225
4.19111
3.96238
3.81234
3.78436
3.92972
4.3001
4.76752
5.14819
5.30851
5.21506
4.8998
4.42113
3.83289
3.16332
2.43942
1.69544
1.0539
0.620581
4.13218
4.10596
4.3304
4.624
4.87945
5.04244
5.10735
5.07497
4.96419
4.79447
4.58796
4.35289
4.12577
3.94678
3.85545
3.89784
4.11702
4.52238
4.95504
5.25911
5.3445
5.19735
4.8608
4.38714
3.82193
3.19619
2.52269
1.82625
1.20338
0.742904
3.5933
3.51072
3.7305
4.04752
4.34648
4.56331
4.68616
4.71128
4.65764
4.5432
4.39173
4.2092
4.0354
3.91482
3.89093
4.01322
4.3088
4.74159
5.13405
5.36284
5.37617
5.17539
4.81668
4.34507
3.79901
3.20737
2.57979
1.93129
1.33545
0.861878
3.01518
2.91034
3.1239
3.45428
3.78573
4.0487
4.22456
4.30336
4.30751
4.25142
4.15866
4.03325
3.92255
3.86906
3.92033
4.12969
4.49915
4.94764
5.29326
5.44886
5.39367
5.14504
4.7671
4.29733
3.7683
3.20472
2.61874
2.01727
1.44808
0.972245
2.5143
2.37733
2.56723
2.89186
3.23596
3.52673
3.74346
3.87067
3.92691
3.92909
3.89562
3.83192
3.79211
3.81271
3.9458
4.24647
4.68169
5.13118
5.42357
5.50818
5.3861
5.10392
4.71295
4.24699
3.73455
3.19871
2.65063
2.08559
1.54076
1.07082
2.09897
1.92157
2.07449
2.37779
2.71987
3.02551
3.26888
3.43397
3.53462
3.5886
3.61144
3.6137
3.64944
3.7492
3.96961
4.36173
4.84914
5.28362
5.5184
5.53738
5.36078
5.05376
4.65677
4.19799
3.70298
3.19404
2.67288
2.13451
1.61379
1.15562
1.77265
1.5524
1.65697
1.92372
2.24936
2.55787
2.81679
3.01099
3.14848
3.24527
3.3191
3.38642
3.49896
3.68439
3.99403
4.4725
4.99398
5.39846
5.57461
5.53142
5.31949
4.99838
4.60275
4.15543
3.68133
3.1883
2.68184
2.16629
1.66823
1.22523
1.53316
1.28113
1.32804
1.54194
1.83535
2.13382
2.39827
2.61215
2.77915
2.91248
3.03039
3.15944
3.34814
3.62328
4.02096
4.57519
5.11005
5.47289
5.59283
5.50373
5.2688
4.94412
4.55724
4.1278
3.66622
3.17795
2.6795
2.18283
1.7055
1.27953
1.39849
1.12709
1.10851
1.2513
1.49305
1.76555
2.02432
2.24814
2.437
2.60102
2.75816
2.94183
3.20492
3.57073
4.05231
4.667
5.19525
5.5099
5.58126
5.46158
5.21902
4.90044
4.53112
4.11433
3.6535
3.16482
2.67071
2.18592
1.72762
1.31943
1.38792
1.12363
1.02479
1.07876
1.24565
1.47073
1.70807
1.92984
2.13159
2.3197
2.51211
2.7411
3.07776
3.53245
4.09098
4.74831
5.25431
5.52124
5.55549
5.42352
5.18442
4.88209
4.52568
4.1093
3.6432
3.15046
2.65708
2.18009
1.73712
1.34653
1.48195
1.22652
1.08426
1.04891
1.12314
1.27404
1.46716
1.67068
1.87361
2.07729
2.30074
2.57354
2.97523
3.51116
4.14265
4.82621
5.30172
5.52754
5.5413
5.40959
5.19511
4.9063
4.54643
4.11581
3.63736
3.13693
2.64075
2.16855
1.73608
1.36258
1.70671
1.45757
1.28468
1.17802
1.1465
1.20296
1.32482
1.48647
1.67517
1.88397
2.13206
2.45117
2.91118
3.51525
4.2205
4.91929
5.36595
5.56286
5.58081
5.48581
5.2882
5.00069
4.60771
4.14593
3.64127
3.12738
2.62468
2.15401
1.7298
1.3702
2.09177
1.82561
1.62003
1.45426
1.33247
1.27644
1.29873
1.39728
1.55222
1.75294
2.02338
2.39
2.89558
3.58157
4.35299
5.06527
5.49862
5.69249
5.75288
5.67073
5.46038
5.16379
4.73608
4.21766
3.66989
3.12637
2.613
2.13985
1.72087
1.37206
2.63882
2.33704
2.0892
1.86778
1.6684
1.50973
1.42271
1.42459
1.52298
1.70554
1.98724
2.39275
2.9896
3.74992
4.59546
5.33693
5.79591
6.03026
6.10044
5.99592
5.78292
5.43805
4.95279
4.36702
3.74839
3.15549
2.612
2.13071
1.713
1.37142
3.3628
3.00957
2.70819
2.42853
2.16004
1.91238
1.7197
1.62038
1.63824
1.78612
2.08621
2.55469
3.24871
4.12004
5.0748
5.87938
6.39212
6.65744
6.70717
6.57227
6.32236
5.88992
5.31418
4.63928
3.92932
3.25079
2.65128
2.13883
1.71147
1.37291
4.30256
3.88695
3.52439
3.18452
2.85314
2.53154
2.2484
2.05262
1.98851
2.09321
2.41336
2.96856
3.80417
4.84668
5.97992
6.89706
7.47249
7.75312
7.7526
7.59531
7.22011
6.64042
5.91653
5.11081
4.28005
3.4917
2.7876
2.20469
1.74134
1.38949
5.5436
5.06391
4.64257
4.24989
3.86921
3.49537
3.14958
2.88266
2.7573
2.83262
3.19831
3.88561
4.92968
6.23862
7.65125
8.72962
9.3759
9.63064
9.59955
9.31828
8.72663
7.90794
6.94955
5.93207
4.91979
3.96827
3.12297
2.4182
1.86259
1.45709
7.26609
6.73897
6.28131
5.86432
5.46943
5.0875
4.73461
4.46084
4.33873
4.4545
4.93679
5.8443
7.20488
8.89353
10.7194
11.9843
12.6918
12.9003
12.7797
12.2207
11.2857
10.0936
8.77148
7.41951
6.10915
4.89621
3.81849
2.90594
2.18459
1.65923
9.85453
9.32816
8.88797
8.51022
8.17508
7.87444
7.62543
7.47847
7.50869
7.83125
8.58277
9.85862
11.6753
13.8571
16.2103
17.6041
18.3139
18.4454
18.0309
17.062
15.6321
13.9
12.0446
10.1939
8.41219
6.77009
5.29342
4.01194
2.96442
2.17887
14.077
13.6679
13.3243
13.0893
12.9363
12.8671
12.9023
13.0984
13.526
14.2958
15.5349
17.3579
19.7601
22.4794
25.3182
26.5908
27.1205
26.9635
26.1245
24.6688
22.6879
20.3355
17.8399
15.3541
12.9209
10.6409
8.52268
6.59706
4.92504
3.60415
21.0892
20.9331
20.9099
20.9797
21.1467
21.4953
22.0177
22.7513
23.7522
25.128
26.9754
29.4016
32.3646
35.4398
38.2903
38.6077
38.1953
37.1853
35.8673
34.1528
32.1184
29.811
27.1701
24.2627
21.227
18.2798
15.3633
12.5141
9.83049
7.53557
31.728
31.7523
32.1821
32.8568
33.6841
34.5732
35.5726
36.7534
38.1701
39.9438
42.1476
44.8321
47.8813
50.5028
51.9066
49.7254
47.9882
46.1193
44.5205
42.8984
41.3132
39.7078
38.0024
36.0702
33.783
30.9132
27.6986
24.209
20.5462
17.1118
42.7051
43.0661
44.1214
45.4785
46.8783
48.2019
49.425
50.6243
51.9137
53.4226
55.2317
57.2657
59.445
60.2685
59.3942
54.7547
51.804
49.2855
47.5612
46.3026
45.5489
45.167
44.9999
44.8057
44.3066
43.323
41.7277
39.5485
36.7929
33.6351
43.6296
44.781
46.5651
48.5142
50.2579
51.6213
52.634
53.4551
54.2754
55.2673
56.4401
57.5547
58.2763
57.5431
54.6619
48.8544
45.4231
42.7539
41.1102
40.1237
39.8768
40.3148
41.229
42.353
43.4149
44.2033
44.5899
44.5295
44.093
43.4204
15.3105
19.1236
20.4875
21.0994
21.3823
21.2712
20.8047
20.0598
19.0948
17.9707
16.7113
15.3805
13.9869
12.644
11.4058
10.4653
10.1051
11.3274
14.307
17.2768
18.4533
17.5932
15.1898
11.9617
8.42489
5.02215
2.30611
0.147962
0.125961
0.475301
8.62516
9.46129
9.7692
9.87219
9.90221
9.80018
9.55458
9.18722
8.72759
8.19801
7.62518
7.01992
6.41978
5.83289
5.33111
4.94349
4.87579
5.62912
7.33409
9.0064
9.75269
9.49945
8.56028
7.24702
5.7287
4.05996
2.35893
0.840958
0.237393
0.235818
7.89571
8.25395
8.39172
8.43801
8.40546
8.28307
8.06532
7.756
7.36998
6.92189
6.4341
5.91916