/*--------------------------------*- C++ -*----------------------------------*\
| =========                 |                                                 |
| \\      /  F ield         | OpenFOAM: The Open Source CFD Toolbox           |
|  \\    /   O peration     | Version:  5.0                                   |
|   \\  /    A nd           | Web:      www.OpenFOAM.org                      |
|    \\/     M anipulation  |                                                 |
\*---------------------------------------------------------------------------*/
FoamFile
{
    version     2.0;
    format      ascii;
    class       volScalarField;
    location    "1450/air";
    object      k;
}
// * * * * * * * * * * * * * * * * * * * * * * * * * * * * * * * * * * * * * //

dimensions      [0 2 -2 0 0 0 0];

internalField   nonuniform List<scalar> 
243000
(
0.0676052
0.0766386
0.0798989
0.0809914
0.0803381
0.0784339
0.0756295
0.0722266
0.068461
0.0645397
0.0605705
0.0566437
0.0527747
0.049088
0.0456632
0.0426919
0.0403154
0.0387389
0.037908
0.0375435
0.0371357
0.0361856
0.0343559
0.0315776
0.028738
0.0264731
0.0243895
0.0227775
0.0193066
0.0181228
0.100412
0.113626
0.117116
0.117238
0.115214
0.111719
0.107278
0.102282
0.0969986
0.0916135
0.0862186
0.0809156
0.0757563
0.0709382
0.0665855
0.0629487
0.0601988
0.0586366
0.058117
0.0582232
0.0582315
0.0574688
0.0553979
0.0518408
0.0470484
0.0414059
0.0357592
0.0297937
0.0242348
0.0212845
0.115512
0.12959
0.134436
0.135109
0.133148
0.129452
0.124613
0.119084
0.113171
0.107108
0.101015
0.0950405
0.0892694
0.0839552
0.079255
0.075475
0.0728024
0.0715229
0.0713614
0.0717621
0.0719242
0.0711408
0.0688346
0.0647881
0.0592248
0.0525611
0.0453067
0.0374685
0.0302357
0.0248342
0.120675
0.136079
0.142704
0.144655
0.143599
0.140523
0.136039
0.130641
0.124684
0.118457
0.112124
0.105894
0.0998863
0.0944163
0.0896801
0.0860415
0.083693
0.0828597
0.0830928
0.083719
0.0839114
0.0829905
0.0804134
0.0759651
0.0698374
0.0624091
0.0541838
0.045134
0.0365477
0.0296729
0.119566
0.135137
0.143998
0.148024
0.148476
0.146534
0.142877
0.138051
0.132458
0.126437
0.120207
0.114031
0.108077
0.102716
0.0981839
0.0948988
0.0930426
0.0927437
0.0933719
0.094168
0.0943211
0.0932057
0.0903516
0.085575
0.0790452
0.071109
0.0622635
0.0524715
0.0428093
0.0348611
0.114482
0.130152
0.140906
0.146888
0.149132
0.148633
0.14609
0.142145
0.137193
0.131646
0.125769
0.119882
0.114202
0.109153
0.105006
0.102233
0.100982
0.101258
0.102267
0.103196
0.103277
0.101946
0.0988236
0.0937786
0.0869707
0.0787226
0.0694994
0.0592815
0.0488258
0.0400348
0.106037
0.1223
0.134646
0.142507
0.146585
0.147707
0.146526
0.143583
0.139418
0.134561
0.129227
0.123804
0.11856
0.113979
0.11035
0.108205
0.107634
0.10849
0.109864
0.110905
0.110904
0.10936
0.105991
0.100727
0.093733
0.0853114
0.0758845
0.0654543
0.0545547
0.0450527
0.095424
0.112498
0.126182
0.135744
0.141621
0.144384
0.144636
0.142911
0.139744
0.135601
0.13091
0.12609
0.121409
0.117405
0.114395
0.11296
0.113103
0.114534
0.116251
0.117398
0.117318
0.115583
0.111999
0.106561
0.0994479
0.0909498
0.0814486
0.0709828
0.059862
0.0498128
0.0849513
0.102264
0.116569
0.127447
0.134908
0.13924
0.140909
0.140457
0.138363
0.135151
0.131225
0.127011
0.122972
0.119618
0.117298
0.116623
0.117485
0.119473
0.121515
0.122766
0.122626
0.120735
0.116977
0.111407
0.104229
0.0957259
0.0862643
0.0758158
0.06461
0.0542377
0.0753832
0.0921865
0.107081
0.118761
0.127144
0.132818
0.135816
0.136621
0.135653
0.133406
0.130301
0.126848
0.123457
0.120787
0.119193
0.119298
0.120866
0.123386
0.125736
0.127097
0.126925
0.124922
0.121036
0.11538
0.108184
0.099749
0.0903506
0.0799462
0.0687549
0.0582833
0.0678286
0.0823453
0.0975088
0.11004
0.119388
0.125878
0.129848
0.131782
0.131923
0.130659
0.128414
0.125717
0.12303
0.121058
0.120202
0.121072
0.123325
0.126345
0.128986
0.130467
0.130299
0.128232
0.124273
0.11858
0.111426
0.103065
0.093731
0.083416
0.0723169
0.0618889
0.0638151
0.0733957
0.0878633
0.101105
0.111488
0.118916
0.123706
0.126355
0.12746
0.127145
0.125756
0.123825
0.121843
0.120562
0.120428
0.122031
0.124923
0.128421
0.131337
0.132951
0.132825
0.130746
0.126771
0.121098
0.11401
0.105735
0.0964808
0.086269
0.0754503
0.0651128
0.0649362
0.0670554
0.0786406
0.0919449
0.103293
0.11177
0.117497
0.120946
0.122673
0.123103
0.122507
0.121318
0.120025
0.119419
0.119967
0.122252
0.125718
0.129657
0.132855
0.134615
0.134571
0.132536
0.128605
0.123012
0.116001
0.107824
0.0986575
0.0885572
0.078137
0.0679572
0.0719539
0.0659566
0.0713989
0.0829686
0.0948052
0.104322
0.111101
0.115454
0.117894
0.118878
0.11887
0.118344
0.117696
0.117726
0.118903
0.121804
0.125805
0.130111
0.133576
0.135526
0.135601
0.133671
0.129859
0.124363
0.11746
0.109395
0.100325
0.0904137
0.0804185
0.0704386
0.0843217
0.0731636
0.0692669
0.075672
0.0864369
0.096606
0.104442
0.109792
0.113044
0.11466
0.115129
0.115064
0.114977
0.115572
0.117314
0.120754
0.125207
0.129883
0.133628
0.135755
0.13597
0.134213
0.13055
0.125199
0.118438
0.110499
0.101547
0.092054
0.0823952
0.0726012
0.0983085
0.0866923
0.0756004
0.0730377
0.0795342
0.0890207
0.0975702
0.103918
0.108063
0.110391
0.111402
0.111701
0.111992
0.113051
0.115275
0.119168
0.123998
0.128979
0.13298
0.135342
0.135739
0.134137
0.130681
0.125548
0.118975
0.111194
0.102498
0.0934516
0.0841014
0.0744783
0.112808
0.102484
0.0889889
0.0783045
0.076687
0.0827312
0.0908575
0.0979023
0.102932
0.106032
0.107646
0.10837
0.108908
0.110267
0.112863
0.117111
0.122243
0.127482
0.131729
0.134348
0.134968
0.133602
0.130361
0.125448
0.119101
0.111527
0.103306
0.094646
0.0855681
0.0760938
0.127915
0.118091
0.105217
0.0909425
0.0808716
0.0798842
0.0852699
0.0920672
0.0977268
0.101581
0.103838
0.105038
0.105878
0.107335
0.110164
0.114656
0.120011
0.125457
0.129938
0.132829
0.133719
0.132631
0.129662
0.125012
0.11891
0.111756
0.103976
0.0956585
0.0868177
0.0774666
0.143598
0.133979
0.122252
0.107398
0.0922298
0.0829442
0.0824651
0.087155
0.0927025
0.0971047
0.0999813
0.101686
0.102873
0.10445
0.107293
0.111893
0.117379
0.12298
0.127676
0.130846
0.132047
0.131276
0.128649
0.124299
0.118548
0.111899
0.104522
0.096509
0.0878685
0.0786119
0.159764
0.150076
0.138568
0.124375
0.107725
0.0923802
0.0843222
0.0843752
0.0883958
0.0927949
0.0961315
0.0983201
0.0998765
0.101628
0.10443
0.108934
0.114442
0.120134
0.125016
0.128466
0.130011
0.129596
0.127356
0.123385
0.11818
0.111989
0.104974
0.0972242
0.0887423
0.0795421
0.176276
0.166334
0.154796
0.141157
0.124529
0.106275
0.091547
0.085079
0.0856456
0.0890227
0.092428
0.0949842
0.0968951
0.098852
0.10167
0.105955
0.111327
0.117027
0.122046
0.125762
0.127672
0.127653
0.125861
0.122498
0.117822
0.112057
0.105366
0.0978357
0.0894676
0.0802796
0.19296
0.182693
0.171337
0.15783
0.141387
0.122145
0.103121
0.090016
0.0853692
0.0863397
0.0891214
0.0917795
0.0939637
0.0961292
0.0989983
0.103133
0.108309
0.11388
0.118953
0.122888
0.125191
0.125669
0.124443
0.12166
0.117498
0.112142
0.105739
0.0983858
0.0900829
0.0808562
0.209656
0.199264
0.187904
0.174288
0.157874
0.138374
0.117164
0.0988098
0.0882314
0.0853706
0.0865799
0.0888871
0.0911646
0.0934952
0.0964291
0.100464
0.10548
0.110938
0.116049
0.120175
0.122845
0.123809
0.12312
0.120898
0.117244
0.112286
0.106158
0.0989348
0.0906419
0.0813167
0.226582
0.216295
0.204407
0.190432
0.173872
0.154293
0.132112
0.110347
0.0942991
0.0866751
0.0852741
0.0866002
0.0886791
0.0910655
0.0940446
0.0980077
0.102891
0.108246
0.11338
0.117677
0.120682
0.122115
0.121941
0.120266
0.117104
0.112554
0.106695
0.0995859
0.0912367
0.0817309
0.242967
0.232315
0.220139
0.205979
0.189342
0.169781
0.147293
0.123639
0.103329
0.090737
0.0858396
0.0854412
0.0869095
0.089168
0.0921454
0.0960535
0.100822
0.106076
0.111212
0.115644
0.118929
0.12078
0.121109
0.119926
0.117226
0.113087
0.107511
0.100494
0.0920396
0.0822428
0.258771
0.247938
0.235643
0.221446
0.204892
0.185535
0.163175
0.138728
0.115554
0.0984676
0.0895322
0.0866722
0.0870035
0.088913
0.0918377
0.0957145
0.100381
0.105512
0.110586
0.115072
0.118539
0.120678
0.121389
0.120636
0.11835
0.114554
0.109193
0.102187
0.0934563
0.0831451
0.275919
0.265098
0.252876
0.23887
0.222679
0.203898
0.182204
0.157961
0.133437
0.112956
0.100001
0.094181
0.0929434
0.0942774
0.0971696
0.101063
0.10558
0.110445
0.115228
0.119462
0.122763
0.124855
0.125622
0.124984
0.122832
0.119129
0.113752
0.106503
0.0972221
0.0858893
0.298443
0.288012
0.276342
0.263233
0.248427
0.231533
0.212091
0.190038
0.166608
0.145154
0.129724
0.121538
0.118947
0.119844
0.122806
0.126658
0.130682
0.134697
0.138373
0.14139
0.143493
0.144509
0.144347
0.142861
0.139898
0.13539
0.129178
0.120894
0.110129
0.0965031
0.342509
0.333872
0.325103
0.3161
0.306566
0.295896
0.283293
0.268362
0.251305
0.234281
0.221098
0.213765
0.211431
0.212561
0.215539
0.218776
0.221201
0.222969
0.223917
0.223941
0.223057
0.221237
0.218427
0.214429
0.208684
0.201399
0.19272
0.181793
0.16813
0.150999
0.506397
0.504992
0.506326
0.50742
0.507748
0.5068
0.503959
0.499143
0.491304
0.481659
0.473663
0.468473
0.465464
0.464789
0.465578
0.467029
0.467339
0.467932
0.468405
0.46902
0.469719
0.4705
0.471053
0.471011
0.467259
0.461771
0.456516
0.44797
0.436809
0.422594
0.0992978
0.116433
0.123268
0.125881
0.125489
0.122964
0.118947
0.113954
0.108337
0.102389
0.0962748
0.0902198
0.0843148
0.0788529
0.0739789
0.0700518
0.0672482
0.0659113
0.0659208
0.0664965
0.0662806
0.0641346
0.0594607
0.0522977
0.0433413
0.0335134
0.0259908
0.0229741
0.020626
0.0197904
0.153251
0.177032
0.18307
0.181747
0.176362
0.168659
0.159771
0.150408
0.140977
0.131762
0.122877
0.114526
0.106735
0.0998658
0.0940643
0.0897844
0.0871578
0.0867322
0.0881646
0.0904664
0.0918934
0.0909792
0.0865633
0.0784065
0.0673534
0.05455
0.0419021
0.0315955
0.0306655
0.0269733
0.178934
0.206216
0.216163
0.217106
0.212906
0.205639
0.196562
0.186532
0.176081
0.165635
0.155413
0.145738
0.136709
0.12886
0.122439
0.118041
0.11576
0.116016
0.118078
0.120762
0.122226
0.120969
0.115677
0.10601
0.092746
0.0770478
0.0607589
0.0449012
0.0367151
0.0339493
0.185566
0.215008
0.229123
0.233293
0.231829
0.226718
0.219153
0.210059
0.200088
0.189762
0.179425
0.169528
0.160278
0.152358
0.146138
0.142314
0.140904
0.141996
0.144529
0.147208
0.148284
0.146369
0.140212
0.129426
0.114715
0.0971648
0.0785226
0.0593599
0.0454475
0.0377781
0.181612
0.209617
0.227261
0.236112
0.238538
0.236425
0.231193
0.223848
0.215176
0.205753
0.196076
0.186694
0.177939
0.170629
0.165227
0.162505
0.162329
0.16437
0.167317
0.169829
0.170368
0.167708
0.160775
0.149207
0.133622
0.115005
0.0949851
0.0739146
0.0562605
0.0442599
0.171149
0.197786
0.217912
0.230335
0.236474
0.237788
0.235265
0.230092
0.223224
0.215182
0.206699
0.198354
0.190617
0.184421
0.180295
0.179088
0.180355
0.183415
0.186733
0.18901
0.188967
0.18555
0.177933
0.165831
0.149781
0.130663
0.109954
0.0879158
0.0680162
0.0527734
0.155334
0.180117
0.202413
0.218234
0.228091
0.232821
0.23334
0.230716
0.225666
0.219261
0.212413
0.205478
0.199145
0.194438
0.191929
0.192538
0.195374
0.199469
0.203128
0.20516
0.204531
0.2004
0.192187
0.179723
0.163494
0.144282
0.12338
0.10102
0.0798894
0.0624268
0.134427
0.157902
0.182452
0.201596
0.215107
0.223122
0.22643
0.226365
0.223646
0.219422
0.214138
0.208833
0.204203
0.201249
0.200615
0.203238
0.207704
0.212818
0.216795
0.218606
0.217434
0.212664
0.20395
0.191254
0.175043
0.156027
0.135305
0.113075
0.0914782
0.0725323
0.113464
0.134959
0.160411
0.182311
0.199053
0.209817
0.215555
0.217967
0.21774
0.215783
0.212616
0.209183
0.206355
0.205318
0.206767
0.211484
0.217602
0.223691
0.227976
0.229612
0.227975
0.222674
0.213566
0.200752
0.18471
0.166099
0.145827
0.124093
0.102554
0.082592
0.0972511
0.114828
0.139374
0.162907
0.181746
0.194373
0.202219
0.206972
0.209096
0.209366
0.208372
0.207011
0.206116
0.207085
0.210694
0.217505
0.225276
0.232284
0.23687
0.238397
0.236402
0.230698
0.221324
0.208511
0.192774
0.174731
0.155048
0.133862
0.112767
0.0922574
0.0855505
0.0979151
0.119919
0.143922
0.164432
0.17863
0.187956
0.194759
0.198995
0.201307
0.202301
0.202838
0.203913
0.206893
0.212661
0.221516
0.230863
0.238767
0.243653
0.245144
0.242918
0.236957
0.227463
0.214791
0.199515
0.18208
0.162961
0.142449
0.12204
0.101348
0.0785161
0.0846624
0.10271
0.125687
0.147198
0.162988
0.174043
0.182344
0.188101
0.192148
0.194918
0.197206
0.200099
0.205048
0.212911
0.223698
0.234486
0.243281
0.248488
0.250023
0.247706
0.24165
0.232207
0.219853
0.205073
0.188204
0.169726
0.149989
0.13025
0.109813
0.0780357
0.0763951
0.0886783
0.108808
0.130186
0.147416
0.160261
0.169989
0.17715
0.182392
0.186576
0.190432
0.195003
0.201825
0.211653
0.22421
0.236266
0.24591
0.251525
0.25319
0.250929
0.244956
0.2358
0.223872
0.209583
0.193308
0.175524
0.156783
0.137531
0.117385
0.0839604
0.0754863
0.0795498
0.0943652
0.114171
0.132029
0.1466
0.157759
0.166162
0.172571
0.177758
0.182902
0.188937
0.197469
0.209073
0.223201
0.236489
0.246791
0.252859
0.254795
0.252734
0.247133
0.238384
0.226929
0.213201
0.197571
0.180612
0.162812
0.143946
0.124078
0.0964478
0.0835629
0.0785332
0.0857476
0.100779
0.11763
0.133194
0.145643
0.155163
0.16266
0.168957
0.174997
0.182206
0.192209
0.205349
0.220813
0.235073
0.246179
0.252815
0.255014
0.25327
0.248195
0.239997
0.229155
0.216082
0.201184
0.185259
0.16804
0.149522
0.129905
0.115133
0.100019
0.0884745
0.0849926
0.0929432
0.106084
0.120711
0.133823
0.144328
0.152827
0.16014
0.167135
0.175128
0.186279
0.200659
0.217204
0.232282
0.244054
0.251254
0.253996
0.252701
0.248102
0.240748
0.230691
0.218408
0.204579
0.189422
0.172613
0.154334
0.134908
0.140035
0.12379
0.108544
0.0964976
0.0930144
0.0995091
0.110564
0.122946
0.133963
0.143265
0.151468
0.159336
0.168071
0.179931
0.195208
0.21256
0.228312
0.2407
0.248528
0.251953
0.251281
0.247429
0.240894
0.231755
0.220582
0.207773
0.1931
0.176611
0.158462
0.139144
0.171112
0.154018
0.136791
0.119244
0.105594
0.100988
0.105434
0.114402
0.124705
0.134298
0.143143
0.151741
0.16118
0.173454
0.189261
0.207135
0.223415
0.236382
0.244888
0.249137
0.249269
0.246432
0.240788
0.23284
0.222796
0.210716
0.19643
0.180139
0.162001
0.142688
0.207828
0.190018
0.171338
0.150518
0.129501
0.113742
0.107688
0.110226
0.117663
0.126494
0.13548
0.144552
0.154616
0.167314
0.183214
0.201305
0.217978
0.231501
0.240724
0.245926
0.247132
0.245548
0.241079
0.234305
0.225237
0.21363
0.199581
0.183335
0.165067
0.145638
0.249263
0.230762
0.210654
0.187496
0.16175
0.137107
0.119766
0.112844
0.114433
0.120768
0.128984
0.138114
0.148613
0.161673
0.17772
0.19568
0.212645
0.226717
0.23672
0.243049
0.245654
0.245317
0.242247
0.236632
0.228135
0.216797
0.202781
0.186384
0.167805
0.148119
0.294348
0.275153
0.253655
0.228452
0.199358
0.168482
0.141328
0.123705
0.116845
0.118329
0.124456
0.132966
0.143575
0.156891
0.173139
0.19127
0.208604
0.223262
0.234107
0.24154
0.245408
0.246263
0.244484
0.239846
0.231934
0.220608
0.206343
0.189525
0.1704
0.15025
0.341946
0.322252
0.299517
0.272383
0.240547
0.205221
0.170615
0.143017
0.126483
0.120876
0.123086
0.129968
0.140246
0.153667
0.170181
0.188665
0.206585
0.222041
0.234012
0.242188
0.246957
0.248897
0.248254
0.244491
0.237052
0.225757
0.210797
0.193161
0.17315
0.152235
0.391779
0.371598
0.347767
0.318904
0.284779
0.246163
0.206175
0.170426
0.144395
0.130444
0.126892
0.130732
0.139848
0.15326
0.1703
0.189491
0.208218
0.224448
0.237194
0.246176
0.251892
0.254687
0.25486
0.251602
0.244477
0.232965
0.217273
0.198122
0.176645
0.154481
0.443637
0.423367
0.398889
0.368934
0.333304
0.292525
0.248902
0.207081
0.172771
0.150232
0.139899
0.139239
0.146439
0.159702
0.17752
0.197803
0.217536
0.23464
0.247996
0.257613
0.263822
0.266802
0.266964
0.263558
0.256154
0.244159
0.227221
0.206337
0.182276
0.157882
0.499427
0.479813
0.455722
0.426005
0.390496
0.349493
0.30454
0.259252
0.218933
0.188972
0.171785
0.166205
0.170679
0.183693
0.203102
0.225067
0.24563
0.263201
0.276696
0.285895
0.291162
0.292913
0.291455
0.286353
0.27724
0.263529
0.244593
0.220693
0.193206
0.164852
0.566294
0.549026
0.527551
0.500799
0.468589
0.430986
0.388859
0.344774
0.30322
0.27003
0.248998
0.240447
0.243489
0.257308
0.279349
0.303139
0.323408
0.339562
0.350532
0.356132
0.357017
0.353728
0.34684
0.336358
0.322052
0.303411
0.279634
0.25041
0.215972
0.180543
0.6642
0.652529
0.637721
0.618793
0.595567
0.567857
0.535701
0.500849
0.466869
0.439396
0.422542
0.417504
0.424393
0.442376
0.467702
0.491988
0.509346
0.520172
0.523781
0.520156
0.51019
0.495378
0.476644
0.454258
0.428214
0.398245
0.363353
0.322442
0.274904
0.223638
0.838434
0.835035
0.830546
0.823743
0.815038
0.803703
0.788354
0.770064
0.750997
0.736362
0.729923
0.733759
0.747691
0.770148
0.795879
0.817525
0.830209
0.834878
0.830007
0.816066
0.794578
0.767512
0.735923
0.699889
0.659244
0.614061
0.563102
0.503861
0.435188
0.358282
1.0703
1.07223
1.08288
1.09448
1.10613
1.1134
1.11255
1.10626
1.09554
1.0877
1.08614
1.09255
1.10436
1.12053
1.13507
1.14559
1.15039
1.15003
1.14248
1.12865
1.10955
1.08658
1.06024
1.02998
0.994384
0.952905
0.903801
0.843725
0.771536
0.686483
1.15291
1.15852
1.18099
1.20379
1.21907
1.22443
1.22147
1.21325
1.20344
1.19571
1.19402
1.19609
1.19787
1.19937
1.19493
1.18879
1.18418
1.17888
1.17294
1.16673
1.1608
1.15542
1.15078
1.14665
1.14099
1.13255
1.1201
1.10187
1.0776
1.04559
0.132693
0.153654
0.16023
0.162916
0.162236
0.158936
0.153799
0.147461
0.140343
0.132818
0.12508
0.117424
0.10992
0.10299
0.0968231
0.0919864
0.088854
0.088552
0.0913378
0.0952928
0.0971673
0.0949106
0.0877969
0.0762126
0.0613695
0.0448294
0.0288249
0.0223076
0.0207825
0.0205815
0.209538
0.240222
0.248993
0.247832
0.241002
0.23104
0.219568
0.207458
0.195185
0.183075
0.171226
0.15989
0.149043
0.139235
0.1307
0.124225
0.120435
0.121501
0.127596
0.136088
0.142317
0.143172
0.136643
0.122735
0.103077
0.0799201
0.0566084
0.0374474
0.0329305
0.0293257
0.250491
0.285146
0.298846
0.300746
0.295452
0.285923
0.274011
0.260807
0.246936
0.232883
0.218907
0.205412
0.192513
0.180975
0.171219
0.164178
0.160485
0.162275
0.169278
0.178638
0.185465
0.186523
0.179298
0.163488
0.140634
0.112825
0.083726
0.0564396
0.0420921
0.0377924
0.270787
0.305856
0.322143
0.32763
0.32542
0.318228
0.307829
0.295432
0.281797
0.267537
0.253093
0.239011
0.225581
0.213745
0.204111
0.19765
0.194831
0.197322
0.204438
0.213373
0.219572
0.220052
0.212178
0.195462
0.171098
0.140981
0.108566
0.0762835
0.0536959
0.0431876
0.275791
0.305771
0.325931
0.336512
0.338586
0.334756
0.326933
0.316393
0.30406
0.290661
0.276828
0.263226
0.250327
0.239244
0.230702
0.225642
0.224215
0.227426
0.234273
0.242155
0.247135
0.246603
0.238056
0.220901
0.196051
0.165111
0.131127
0.0960745
0.0678591
0.051356
0.271355
0.296749
0.318324
0.332454
0.338985
0.339245
0.334707
0.326721
0.316439
0.304656
0.292244
0.27993
0.268398
0.258897
0.252202
0.249186
0.249469
0.253399
0.259769
0.2663
0.269769
0.267938
0.258649
0.241292
0.21654
0.185704
0.151356
0.115108
0.0834356
0.0620437
0.260659
0.280451
0.301848
0.318903
0.329702
0.334233
0.333571
0.328595
0.32075
0.311107
0.300816
0.290429
0.280947
0.273721
0.269496
0.269057
0.271213
0.275848
0.281633
0.286677
0.288508
0.285224
0.275131
0.257679
0.233356
0.203203
0.169304
0.133035
0.0995348
0.0743913
0.241958
0.256622
0.27798
0.297885
0.312792
0.321564
0.324759
0.323362
0.318591
0.311787
0.303678
0.295696
0.288842
0.284463
0.283241
0.285772
0.289892
0.295196
0.300339
0.303882
0.304044
0.299258
0.288324
0.27083
0.247125
0.218013
0.185217
0.149469
0.115395
0.0875256
0.214705
0.226205
0.248551
0.271482
0.29018
0.30302
0.310038
0.312255
0.310844
0.307031
0.301842
0.296598
0.292783
0.291702
0.293975
0.299709
0.305817
0.31173
0.316225
0.318355
0.316845
0.310613
0.298861
0.281358
0.258383
0.230596
0.19885
0.164152
0.130343
0.100705
0.186937
0.195657
0.217464
0.242102
0.26386
0.280378
0.290973
0.296653
0.298594
0.298015
0.296001
0.293946
0.293406
0.296014
0.302077
0.311123
0.319214
0.325667
0.329538
0.330382
0.327296
0.319739
0.307249
0.289791
0.267679
0.240905
0.210445
0.177186
0.14412
0.113467
0.162478
0.167115
0.187137
0.21248
0.236417
0.255579
0.269128
0.277948
0.283044
0.285641
0.286929
0.28829
0.291267
0.297826
0.307821
0.320183
0.330251
0.337168
0.340483
0.340175
0.335694
0.326993
0.313911
0.296621
0.275068
0.249387
0.220325
0.18871
0.156611
0.125751
0.142858
0.142103
0.158822
0.183615
0.208834
0.23009
0.246133
0.25754
0.265351
0.270896
0.275383
0.280183
0.286816
0.297413
0.311466
0.327053
0.339015
0.346364
0.349229
0.347915
0.342286
0.332675
0.3192
0.302076
0.281074
0.256467
0.22889
0.199006
0.167752
0.137035
0.129442
0.122144
0.134003
0.156583
0.181945
0.204668
0.222802
0.236481
0.246712
0.254718
0.262114
0.270216
0.280506
0.295264
0.313251
0.331861
0.345574
0.353383
0.355912
0.353791
0.347291
0.337039
0.323504
0.306499
0.286103
0.262582
0.236653
0.207966
0.177543
0.147162
0.124231
0.110069
0.115048
0.133034
0.15686
0.18009
0.199817
0.215454
0.227813
0.238103
0.247894
0.258965
0.272762
0.291587
0.313204
0.334708
0.35001
0.358363
0.360681
0.357991
0.350908
0.340446
0.326894
0.310213
0.290545
0.268412
0.243601
0.215749
0.186032
0.156068
0.127907
0.109933
0.105609
0.115898
0.13551
0.157578
0.177964
0.195082
0.209246
0.221541
0.233527
0.24699
0.264012
0.286633
0.311677
0.335714
0.352446
0.361422
0.363714
0.360714
0.353461
0.343051
0.329718
0.313586
0.295031
0.27395
0.249696
0.222469
0.1933
0.163751
0.140028
0.120172
0.108885
0.109172
0.121197
0.13926
0.158501
0.176153
0.191608
0.205556
0.219447
0.234916
0.254672
0.280633
0.308701
0.335017
0.35309
0.362722
0.365259
0.362305
0.355261
0.345148
0.332404
0.317296
0.299726
0.279047
0.255115
0.228262
0.199453
0.170268
0.16267
0.141849
0.125993
0.116904
0.117661
0.128494
0.143489
0.159885
0.175664
0.190698
0.206099
0.223321
0.245182
0.273867
0.304494
0.332818
0.352258
0.362778
0.365703
0.363193
0.356703
0.347467
0.335994
0.321775
0.304535
0.283929
0.260018
0.233269
0.204616
0.175702
0.195839
0.174207
0.155427
0.139486
0.129289
0.127873
0.135809
0.148122
0.162506
0.177657
0.193956
0.212653
0.236366
0.266749
0.299417
0.329495
0.350271
0.361814
0.365609
0.364016
0.358658
0.350948
0.340615
0.326897
0.309562
0.288739
0.264553
0.237633
0.208923
0.18016
0.238343
0.215667
0.194504
0.173779
0.154959
0.141897
0.138106
0.143152
0.153647
0.167376
0.183687
0.203439
0.2286
0.259918
0.294131
0.325732
0.34795
0.360843
0.365871
0.365877
0.362215
0.355749
0.3461
0.332616
0.314965
0.29363
0.268878
0.241505
0.212518
0.183771
0.288413
0.264262
0.240628
0.216088
0.191043
0.168273
0.152631
0.146978
0.150721
0.161168
0.176231
0.196364
0.222541
0.254768
0.289885
0.322756
0.346668
0.361403
0.368258
0.369868
0.367622
0.36207
0.352924
0.339394
0.32115
0.29889
0.273215
0.245084
0.215579
0.186677
0.344265
0.318233
0.29191
0.263882
0.234044
0.204028
0.178171
0.161399
0.155739
0.160087
0.172831
0.192644
0.219427
0.252487
0.288815
0.322995
0.348828
0.365369
0.37386
0.376951
0.375953
0.370992
0.361965
0.348149
0.329035
0.305156
0.278015
0.248703
0.218359
0.189061
0.404531
0.376462
0.347414
0.316126
0.282341
0.246964
0.213326
0.186629
0.171085
0.167554
0.175784
0.193611
0.220762
0.255396
0.293497
0.329406
0.357217
0.375337
0.385406
0.389671
0.389406
0.38445
0.374914
0.360288
0.339761
0.313955
0.284359
0.253095
0.221349
0.191252
0.468778
0.438912
0.407542
0.373575
0.33676
0.297608
0.258579
0.22424
0.199662
0.187981
0.189824
0.2051
0.232353
0.26858
0.309268
0.34754
0.377185
0.396569
0.407879
0.412678
0.412159
0.406133
0.394984
0.378461
0.355944
0.327584
0.294885
0.260078
0.225749
0.194002
0.538331
0.507592
0.475087
0.439846
0.401612
0.360671
0.318848
0.279868
0.248719
0.229979
0.225628
0.237343
0.264384
0.303192
0.347659
0.388792
0.419512
0.439722
0.45115
0.45511
0.452454
0.4434
0.428681
0.408409
0.382311
0.35033
0.313502
0.274371
0.235092
0.199436
0.618341
0.588824
0.557599
0.523749
0.486933
0.447302
0.406293
0.366949
0.333773
0.311754
0.303892
0.313419
0.340776
0.382406
0.431693
0.475038
0.505293
0.524565
0.533786
0.534217
0.526171
0.51084
0.489349
0.462291
0.429727
0.391722
0.348793
0.302385
0.256015
0.213654
0.722092
0.697422
0.671266
0.642872
0.611725
0.577974
0.542968
0.509301
0.48079
0.462094
0.456257
0.467969
0.497628
0.541743
0.594366
0.636894
0.664004
0.679046
0.682802
0.675627
0.658541
0.633304
0.601474
0.564008
0.521268
0.473462
0.420639
0.363519
0.303971
0.248305
0.875906
0.860555
0.843361
0.824886
0.80404
0.781136
0.757348
0.734828
0.716567
0.706487
0.707528
0.724883
0.757817
0.802701
0.852935
0.889376
0.909644
0.917607
0.913475
0.897416
0.871236
0.836905
0.795627
0.748112
0.694674
0.635543
0.570356
0.498342
0.420485
0.342068
1.1025
1.09798
1.09475
1.08924
1.08115
1.07054
1.0583
1.04609
1.03641
1.03281
1.03899
1.05854
1.08981
1.1276
1.16427
1.18424
1.19235
1.19127
1.18086
1.16185
1.13598
1.1047
1.06793
1.02472
0.973729
0.914026
0.845188
0.764914
0.672799
0.573055
1.33328
1.33381
1.34564
1.35809
1.36548
1.36516
1.35862
1.34827
1.33769
1.33165
1.33384
1.34545
1.36212
1.37687
1.38355
1.37284
1.36222
1.34936
1.33646
1.32273
1.30994
1.29878
1.28835
1.2758
1.25753
1.22967
1.18732
1.13078
1.05818
0.971216
1.35127
1.36425
1.38814
1.4108
1.4248
1.42796
1.42099
1.40826
1.39502
1.38533
1.38134
1.38158
1.38137
1.37599
1.35868
1.32819
1.30543
1.28525
1.2711
1.26208
1.2594
1.26301
1.27199
1.28363
1.29435
1.30077
1.29991
1.29152
1.2735
1.24658
0.165358
0.189354
0.195349
0.196645
0.195062
0.19081
0.184561
0.176977
0.168509
0.159565
0.150319
0.141114
0.13197
0.12344
0.115755
0.109837
0.106689
0.109599
0.119349
0.130512
0.136282
0.134108
0.124016
0.107375
0.085836
0.0613653
0.0374116
0.0236439
0.0209838
0.0207975
0.264648
0.299997
0.307646
0.305979
0.297953
0.286301
0.272913
0.258734
0.244209
0.229649
0.215074
0.200752
0.186558
0.173353
0.161537
0.152647
0.148831
0.156061
0.174451
0.195808
0.209941
0.212505
0.202153
0.180339
0.149602
0.112943
0.0758103
0.0437309
0.0320117
0.0295508
0.321176
0.359568
0.373315
0.37533
0.369167
0.358071
0.344167
0.328572
0.311913
0.294686
0.277127
0.25963
0.242313
0.226348
0.212484
0.202441
0.198728
0.20745
0.227928
0.25136
0.267153
0.270741
0.260004
0.235904
0.200919
0.15767
0.111746
0.0682393
0.0442429
0.0379136
0.355615
0.390383
0.408091
0.414287
0.411465
0.402899
0.390503
0.375494
0.358687
0.340751
0.32215
0.303392
0.284905
0.268072
0.253965
0.244269
0.241433
0.250876
0.271152
0.293776
0.308913
0.312273
0.301347
0.276759
0.240382
0.194428
0.144015
0.0935725
0.0586093
0.0445866
0.372558
0.401871
0.422095
0.432708
0.434055
0.429119
0.41938
0.406123
0.390372
0.372993
0.354662
0.335997
0.317713
0.301394
0.288308
0.280015
0.278618
0.288478
0.307515
0.327879
0.341087
0.343371
0.332103
0.307631
0.271318
0.224947
0.17288
0.118837
0.075907
0.0538817
0.374474
0.397221
0.41858
0.433711
0.441024
0.440647
0.43444
0.423827
0.410068
0.394284
0.377256
0.359781
0.342842
0.328182
0.317149
0.311111
0.311542
0.321664
0.338877
0.35626
0.36676
0.367336
0.355428
0.331244
0.295751
0.250344
0.198568
0.143243
0.0953054
0.0659693
0.367759
0.384976
0.405795
0.423897
0.43562
0.440005
0.437944
0.430642
0.419621
0.406348
0.391555
0.376227
0.361622
0.349648
0.341573
0.338523
0.341002
0.351245
0.366307
0.380305
0.387731
0.386107
0.373293
0.349388
0.315105
0.27153
0.220856
0.165552
0.115108
0.0800709
0.352432
0.363203
0.383243
0.403894
0.419869
0.42894
0.431564
0.428341
0.42097
0.410475
0.398645
0.386383
0.375025
0.36667
0.362366
0.362881
0.3675
0.377705
0.390412
0.400868
0.405068
0.400971
0.38705
0.363354
0.330498
0.288735
0.239625
0.185559
0.134447
0.0952512
0.328149
0.333327
0.352644
0.375579
0.395553
0.409286
0.416618
0.417843
0.414506
0.407915
0.399833
0.391071
0.383849
0.379946
0.380163
0.384631
0.391356
0.401317
0.41156
0.418507
0.419472
0.412844
0.397706
0.374163
0.342306
0.302263
0.255318
0.203428
0.152813
0.110801
0.296039
0.297244
0.31599
0.340932
0.364602
0.382832
0.394852
0.400537
0.401623
0.399423
0.395722
0.391333
0.388793
0.390077
0.395521
0.404083
0.41276
0.42225
0.43
0.433651
0.431425
0.42242
0.406048
0.382486
0.35136
0.313086
0.268561
0.219278
0.169665
0.126195
0.264511
0.260674
0.277763
0.30357
0.329836
0.351695
0.367974
0.378083
0.383599
0.386029
0.387075
0.387615
0.390489
0.39776
0.408725
0.421425
0.431828
0.440614
0.44594
0.446556
0.441377
0.43026
0.412767
0.388945
0.358556
0.322119
0.280178
0.233092
0.184627
0.140674
0.235816
0.22575
0.240041
0.265524
0.293415
0.31815
0.337965
0.352106
0.361868
0.368904
0.374789
0.380664
0.389647
0.403408
0.42004
0.436754
0.448638
0.456514
0.459608
0.45741
0.44972
0.436834
0.418495
0.394412
0.364736
0.330245
0.290111
0.244686
0.197595
0.153865
0.211554
0.194759
0.204977
0.228664
0.256972
0.283719
0.306394
0.324134
0.337864
0.349187
0.359832
0.371253
0.386913
0.407453
0.429717
0.450165
0.463221
0.470073
0.471169
0.466519
0.456854
0.44268
0.423695
0.399587
0.371036
0.337512
0.298233
0.254252
0.208576
0.165531
0.192549
0.170445
0.175248
0.195216
0.222303
0.249889
0.27464
0.29538
0.312699
0.328044
0.343202
0.360203
0.382824
0.410268
0.437942
0.461735
0.475635
0.481479
0.480826
0.474249
0.463225
0.448362
0.429109
0.405497
0.377335
0.343654
0.304853
0.262002
0.217658
0.175583
0.183024
0.156755
0.154507
0.168304
0.191838
0.218533
0.244237
0.267166
0.287538
0.306565
0.325981
0.348342
0.377879
0.412211
0.444861
0.471551
0.486018
0.490984
0.488929
0.481083
0.469389
0.454461
0.435722
0.412206
0.383293
0.34897
0.310215
0.268162
0.224998
0.184035
0.185069
0.15805
0.14705
0.152075
0.169005
0.192224
0.217087
0.240966
0.263573
0.285746
0.309097
0.336426
0.372536
0.413195
0.450589
0.479756
0.494628
0.498944
0.496038
0.487686
0.476058
0.461876
0.443326
0.419067
0.388891
0.353622
0.314542
0.272955
0.230787
0.190982
0.197701
0.170883
0.154693
0.149995
0.157965
0.174322
0.195646
0.218584
0.242139
0.266594
0.293459
0.325636
0.367229
0.413379
0.455325
0.48664
0.501928
0.50597
0.502985
0.495025
0.484467
0.470651
0.451374
0.4258
0.394179
0.357739
0.318044
0.276613
0.235234
0.196554
0.223663
0.197154
0.177385
0.16492
0.161471
0.168238
0.182873
0.202056
0.224676
0.250178
0.280079
0.316551
0.362556
0.413208
0.459488
0.492769
0.508735
0.513119
0.511085
0.504743
0.494611
0.480569
0.459834
0.432533
0.399245
0.361452
0.320924
0.279387
0.238563