/*--------------------------------*- C++ -*----------------------------------*\
| =========                 |                                                 |
| \\      /  F ield         | OpenFOAM: The Open Source CFD Toolbox           |
|  \\    /   O peration     | Version:  5.0                                   |
|   \\  /    A nd           | Web:      www.OpenFOAM.org                      |
|    \\/     M anipulation  |                                                 |
\*---------------------------------------------------------------------------*/
FoamFile
{
    version     2.0;
    format      ascii;
    class       volScalarField;
    location    "1450/air";
    object      nut;
}
// * * * * * * * * * * * * * * * * * * * * * * * * * * * * * * * * * * * * * //

dimensions      [0 2 -1 0 0 0 0];

internalField   nonuniform List<scalar> 
243000
(
0.000137341
0.000140756
0.000138473
0.000134484
0.000129391
0.00012372
0.000117809
0.000111905
0.00010618
0.000100779
9.57517e-05
9.11342e-05
8.69044e-05
8.31307e-05
7.98458e-05
7.72012e-05
7.5328e-05
7.44417e-05
7.45358e-05
7.53666e-05
7.64312e-05
7.71873e-05
7.7178e-05
7.61279e-05
7.37519e-05
7.28508e-05
0.000313128
0.000310621
0.000283497
0.000286457
0.000593635
0.000631412
0.000640985
0.000641274
0.000635678
0.000625929
0.00061333
0.00059885
0.000583147
0.0005667
0.000549733
0.000532534
0.000515251
0.000498569
0.000482999
0.000469583
0.000459162
0.000453119
0.000451081
0.0004515
0.000451569
0.000448656
0.000440553
0.000426226
0.000406787
0.000378177
0.000356279
0.00032323
0.000291355
0.000273096
0.000636795
0.000674374
0.000686801
0.000688462
0.000683402
0.000673806
0.000661054
0.000646188
0.000629903
0.000612765
0.000595047
0.000577151
0.000559321
0.00054238
0.000526936
0.000514161
0.000504912
0.000500395
0.000499796
0.0005012
0.000501802
0.000499119
0.000491024
0.000476431
0.000455552
0.000429042
0.000398568
0.000362326
0.000325438
0.000294944
0.000650993
0.000691151
0.000707666
0.000712418
0.000709754
0.000702062
0.000690723
0.000676841
0.000661189
0.000644428
0.000626928
0.000609224
0.000591652
0.000575179
0.000560513
0.000548956
0.000541335
0.000538561
0.000539277
0.000541304
0.000541959
0.000539034
0.000530663
0.000515838
0.00049463
0.000467617
0.000435736
0.000397659
0.000357812
0.000322406
0.000648105
0.00068885
0.000710957
0.000720732
0.000721753
0.000716958
0.000707904
0.000695799
0.000681513
0.000665802
0.00064915
0.000632213
0.000615441
0.000599931
0.000586481
0.000576505
0.000570748
0.000569748
0.000571626
0.000574051
0.000574547
0.000571196
0.000562447
0.00054744
0.000526189
0.000499116
0.000467061
0.000428759
0.000387258
0.000349458
0.000634297
0.000676135
0.000703368
0.000718029
0.000723403
0.000722119
0.000715859
0.000706073
0.000693618
0.000679405
0.000664023
0.00064825
0.000632653
0.000618448
0.000606511
0.000598354
0.000594579
0.000595297
0.0005982
0.000600899
0.000601162
0.000597327
0.000588173
0.000573026
0.00055189
0.000525111
0.00049342
0.000455716
0.00041357
0.000374486
0.000610616
0.000655554
0.00068767
0.000707323
0.000717267
0.000719924
0.000716968
0.000709669
0.000699255
0.000686916
0.000673116
0.000658789
0.00064463
0.000631981
0.000621751
0.00061557
0.000613825
0.00061616
0.000619984
0.000622899
0.000622917
0.000618616
0.000609077
0.000593821
0.000572892
0.000546596
0.000515546
0.000478825
0.000437147
0.000397251
0.000579432
0.000628874
0.000665815
0.00069043
0.000705096
0.000711845
0.000712385
0.00070806
0.000700109
0.000689598
0.000677517
0.000664869
0.000652346
0.000641421
0.000633044
0.000628934
0.000629202
0.000633057
0.000637713
0.000640827
0.000640628
0.000635922
0.000626047
0.00061072
0.000590043
0.000564318
0.000534067
0.000498602
0.000457892
0.000417692
0.000546807
0.000599671
0.000640019
0.000669093
0.000688272
0.000699124
0.000703211
0.000702008
0.00069669
0.000688498
0.000678366
0.000667321
0.000656554
0.000647449
0.000641024
0.000639034
0.000641245
0.000646525
0.00065195
0.000655268
0.00065491
0.000649886
0.000639751
0.000624397
0.000604004
0.000578892
0.000549581
0.000515253
0.00047567
0.000435828
0.00051515
0.000569468
0.000613509
0.000645951
0.00066826
0.000682891
0.000690458
0.00069242
0.000689891
0.000684087
0.000676014
0.000666931
0.000657876
0.00065062
0.000646183
0.000646305
0.000650376
0.000656986
0.000663129
0.000666675
0.000666237
0.000661
0.000650699
0.000635375
0.0006153
0.000590878
0.000562393
0.000529054
0.000490652
0.000451762
0.000488572
0.00053833
0.000585562
0.000621865
0.00064761
0.000664857
0.000675188
0.000680114
0.000680402
0.000677063
0.000671151
0.00066399
0.000656765
0.000651368
0.000648911
0.000651076
0.000656927
0.000664775
0.000671596
0.000675402
0.000674976
0.00066964
0.000659281
0.000644063
0.000624392
0.000600561
0.000572761
0.00054036
0.00050317
0.0004655
0.000473575
0.000508276
0.000555974
0.00059619
0.000625889
0.000646272
0.00065907
0.000666012
0.000668855
0.000667955
0.000664219
0.000659017
0.000653624
0.00065005
0.000649523
0.000653631
0.000661132
0.000670165
0.000677635
0.000681742
0.000681425
0.00067611
0.000665809
0.000650804
0.000631529
0.000608227
0.000581042
0.000549467
0.000513915
0.000477441
0.000477154
0.000485587
0.000526058
0.000568662
0.000602546
0.00062663
0.000642375
0.000651644
0.00065621
0.000657306
0.000655637
0.000652358
0.000648764
0.000646981
0.000648281
0.000654202
0.000663193
0.000673334
0.000681481
0.000685934
0.000685825
0.000680656
0.000670544
0.000655863
0.000636955
0.000614144
0.000587498
0.000556649
0.00052294
0.000487723
0.000501693
0.000480934
0.000501057
0.000540264
0.000577372
0.000605494
0.000624722
0.000636733
0.000643346
0.000645961
0.00064588
0.000644358
0.000642475
0.000642402
0.000645402
0.000652984
0.000663389
0.000674467
0.000683263
0.000688186
0.000688374
0.000683498
0.000673735
0.000659384
0.000640879
0.000618533
0.000592379
0.000562425
0.000530485
0.000496516
0.000542631
0.000505548
0.000492822
0.000515784
0.000551364
0.000582774
0.000605801
0.000620994
0.000630026
0.000634437
0.000635665
0.00063541
0.000635049
0.000636523
0.00064108
0.000650147
0.000661772
0.000673813
0.000683337
0.000688697
0.000689237
0.000684797
0.000675449
0.000661523
0.000643469
0.000621579
0.000595912
0.000567459
0.000536926
0.000504047
0.000586132
0.000549864
0.000513833
0.000506065
0.000528734
0.000559478
0.000585621
0.000604233
0.000616051
0.000622561
0.000625325
0.00062608
0.000626788
0.000629572
0.000635492
0.000645846
0.000658534
0.000671412
0.000681615
0.00068758
0.000688575
0.000684527
0.000675697
0.000662353
0.000644846
0.000623456
0.000598661
0.00057171
0.000542417
0.000510485
0.000627987
0.000598219
0.000557146
0.000523048
0.0005186
0.000539206
0.000565152
0.000586557
0.000601315
0.000610198
0.000614733
0.000616706
0.000618121
0.000621799
0.000628819
0.000640235
0.000653823
0.000667451
0.000678336
0.000684978
0.000686543
0.000683085
0.000674791
0.000662011
0.0006451
0.000624312
0.000600964
0.000575304
0.000547083
0.000515953
0.0006688
0.000642321
0.000605753
0.000563089
0.000531635
0.000529339
0.00054737
0.000568834
0.000585972
0.000597307
0.000603804
0.000607183
0.000609487
0.000613502
0.00062127
0.000633484
0.000647796
0.00066208
0.000673645
0.000681022
0.000683281
0.000680516
0.000672901
0.000660781
0.000644509
0.000624911
0.000602857
0.000578324
0.000551017
0.000520544
0.000708685
0.000684311
0.000653374
0.000612041
0.000567175
0.000538592
0.000537888
0.00055335
0.00057073
0.000584043
0.000592527
0.00059745
0.000600799
0.000605218
0.000613137
0.000625801
0.000640631
0.000655468
0.000667695
0.000675847
0.000678917
0.000676948
0.000670189
0.000658814
0.000643477
0.00062526
0.000604386
0.000580837
0.000554291
0.000524331
0.000747574
0.000724369
0.000695815
0.000658895
0.000612924
0.000567788
0.000543258
0.000544149
0.000557244
0.000570952
0.000581042
0.00058751
0.00059201
0.000597003
0.000604915
0.000617476
0.000632549
0.000647805
0.000660647
0.000669602
0.000673586
0.000672523
0.000666727
0.000656306
0.000642414
0.000625454
0.000605635
0.000582929
0.000556986
0.000527372
0.000785311
0.000762692
0.000735586
0.000702174
0.000659199
0.000608808
0.000565447
0.000545899
0.000548302
0.000559184
0.000569754
0.000577483
0.000583129
0.000588808
0.000596877
0.000608985
0.000623872
0.000639346
0.000652708
0.000662454
0.000667427
0.000667383
0.000662739
0.000653889
0.000641378
0.000625581
0.000606703
0.000584698
0.000559198
0.000529753
0.00082168
0.000799405
0.000774074
0.000742703
0.000702652
0.000652796
0.000599822
0.000560981
0.000547047
0.000550553
0.000559444
0.000567668
0.000574258
0.000580654
0.000588993
0.000600829
0.000615363
0.000630682
0.000644361
0.000654808
0.000660865
0.000662127
0.000658932
0.000651587
0.000640431
0.000625752
0.000607713
0.000586276
0.000561054
0.00053159
0.00085653
0.000834971
0.000810682
0.000780581
0.000742678
0.000695008
0.000639335
0.000587366
0.000555705
0.00054721
0.000551323
0.000558636
0.000565647
0.000572652
0.000581306
0.000593006
0.000607272
0.00062247
0.000636421
0.000647501
0.000654594
0.000657151
0.000655353
0.000649478
0.00063967
0.000626088
0.000608846
0.000587842
0.000562725
0.000533034
0.00089048
0.000869938
0.000845583
0.000816022
0.000779542
0.000734085
0.000679015
0.000620553
0.000574108
0.000551054
0.000546993
0.000551348
0.00055787
0.000565161
0.000574075
0.000585715
0.000599772
0.000614862
0.000629035
0.000640695
0.000648754
0.000652579
0.000652142
0.000647711
0.000639224
0.000626767
0.000610319
0.000589705
0.000564497
0.000534317
0.000922122
0.000901609
0.00087757
0.000848757
0.000813595
0.000770203
0.000717125
0.000656872
0.000600713
0.000563482
0.000548579
0.00054754
0.000552237
0.000559227
0.000568242
0.000579843
0.000593705
0.000608655
0.000622966
0.0006351
0.000643975
0.000648945
0.000649848
0.000646727
0.000639485
0.000628181
0.000612581
0.000592321
0.000566905
0.000535911
0.000951674
0.000931474
0.000908
0.000880113
0.000846435
0.000805271
0.000754951
0.000695893
0.000635143
0.000586704
0.000559974
0.000551294
0.000552439
0.000558377
0.000567265
0.000578804
0.000592398
0.000607026
0.000621192
0.00063349
0.000642867
0.00064861
0.000650538
0.000648575
0.000642482
0.000632181
0.000617293
0.000597226
0.000571183
0.000538765
0.000982729
0.000963206
0.000940663
0.000914142
0.000882489
0.000844289
0.000797902
0.000742706
0.000682535
0.000628187
0.000591509
0.000574424
0.000570811
0.000574866
0.000583434
0.000594728
0.000607549
0.000621081
0.000634127
0.000645487
0.000654235
0.000659743
0.000661774
0.000660143
0.000654511
0.000644656
0.000630024
0.000609678
0.000582534
0.000547521
0.00102208
0.00100401
0.000983391
0.000959696
0.000932205
0.000899812
0.000861033
0.000814851
0.00076284
0.000712113
0.000673509
0.000652257
0.000645481
0.000647953
0.000655798
0.000665793
0.000676027
0.000686071
0.000695133
0.000702485
0.000707565
0.000710001
0.00070959
0.000705959
0.000698658
0.000687379
0.000671495
0.000649655
0.00062006
0.000580392
0.00109501
0.00108108
0.00106674
0.0010518
0.00103574
0.00101747
0.000995459
0.00096876
0.00093738
0.000905096
0.000879443
0.00086496
0.000860391
0.000862764
0.000868759
0.000875152
0.000879843
0.000883189
0.000884907
0.000884818
0.00088296
0.000879281
0.000873649
0.000865623
0.000853967
0.000838963
0.000820729
0.00079715
0.0007666
0.00072645
0.00133163
0.00132977
0.0013315
0.00133292
0.00133333
0.00133206
0.0013283
0.0013219
0.00131143
0.00129851
0.00128775
0.00128074
0.00127667
0.0012758
0.0012769
0.00127887
0.00127926
0.00128003
0.00128063
0.00128143
0.00128236
0.0012834
0.00128415
0.0012841
0.00127896
0.00127143
0.00126419
0.0012523
0.0012366
0.00121628
0.000166444
0.000173492
0.000171993
0.000167657
0.000161707
0.000154901
0.000147734
0.00014055
0.000133559
0.000126924
0.000120706
0.000115001
0.000109829
0.000105342
0.000101607
9.88654e-05
9.72594e-05
9.70722e-05
9.82662e-05
0.000100285
0.000102097
0.000102751
0.000101528
9.79705e-05
9.19918e-05
8.35571e-05
0.000348747
0.000316036
0.000303077
0.000313684
0.000621463
0.000703282
0.000681937
0.000636609
0.000586503
0.000538434
0.000495401
0.000457892
0.000425383
0.000397384
0.00037296
0.000351987
0.000333497
0.000318376
0.000306071
0.000297668
0.000292553
0.000292541
0.000295473
0.000300873
0.000307307
0.00031292
0.000313075
0.00030409
0.000287068
0.000261971
0.000246507
0.000259462
0.00032418
0.000322653
0.000969671
0.00112157
0.00113478
0.00109316
0.00103122
0.00096433
0.000900292
0.000842015
0.000789986
0.000744268
0.000703826
0.000668907
0.000638155
0.000613517
0.000594404
0.000582219
0.000575416
0.000575234
0.000575499
0.000576271
0.00057778
0.000578926
0.00057225
0.000553294
0.000519749
0.000472769
0.000419711
0.000370662
0.000370827
0.000400576
0.00116127
0.00136748
0.00142901
0.00141164
0.00136156
0.00129725
0.00122974
0.00116473
0.00110448
0.00105001
0.00100106
0.000958658
0.000921935
0.000893604
0.000873382
0.000862858
0.000859108
0.000860207
0.000857507
0.00085175
0.000844841
0.000836982
0.000820781
0.000789472
0.000740444
0.000674597
0.000597967
0.00051285
0.000456774
0.000447243
0.00125174
0.00147027
0.00157516
0.00160357
0.00158291
0.00153452
0.00147483
0.00141295
0.00135319
0.00129724
0.00124639
0.00120242
0.00116546
0.00113888
0.00112286
0.00111881
0.00112163
0.0011252
0.00112003
0.00110775
0.00109251
0.00107511
0.00104901
0.0010064
0.000944898
0.000864789
0.000771492
0.000664074
0.000570356
0.000518228
0.00128916
0.00151364
0.00164682
0.00170695
0.00171539
0.001691
0.00164596
0.00159342
0.00154071
0.00148861
0.00144128
0.00140059
0.00136816
0.00134803
0.0013405
0.00134691
0.00135805
0.00136465
0.00135736
0.00133949
0.00131693
0.00129061
0.00125514
0.00120352
0.00113257
0.00104223
0.00093761
0.000816409
0.000699272
0.000612848
0.00128275
0.00149576
0.00164876
0.00173864
0.0017778
0.00177964
0.00175669
0.00172005
0.00167493
0.00162971
0.00159107
0.00155754
0.00153343
0.00152372
0.00152813
0.0015481
0.00156846
0.00157797
0.00156891
0.00154663
0.00151775
0.0014838
0.00144029
0.00138157
0.00130395
0.00120698
0.00109474
0.000965231
0.000833809
0.000722374
0.0012161
0.00141835
0.00159124
0.00171135
0.00178281
0.0018127
0.0018123
0.00179447
0.0017645
0.00173373
0.00170183
0.00167775
0.00166541
0.00166899
0.00168831
0.00172409
0.00175406
0.0017664
0.00175573
0.00173023
0.00169616
0.00165543
0.00160587
0.00154188
0.00145978
0.00135905
0.00124283
0.00110886
0.000969226
0.000838992
0.00109476
0.00128808
0.00148376
0.00163512
0.00174039
0.00179867
0.00182196
0.00182463
0.00181337
0.00179725
0.00177918
0.00176752
0.00176795
0.00178671
0.00182374
0.00187638
0.00191654
0.0019316
0.00191992
0.00189191
0.001854
0.00180907
0.00175477
0.00168618
0.00160128
0.00149909
0.00138193
0.00124767
0.00110373
0.000956396
0.00097222
0.00113281
0.00133338
0.00151708
0.00165917
0.00174548
0.00179422
0.00181952
0.00182818
0.00182896
0.00182654
0.00182968
0.00184495
0.00188012
0.00193641
0.00200608
0.00205615
0.002075
0.00206351
0.00203363
0.00199416
0.00194644
0.00188868
0.00181744
0.00173025
0.00162845
0.0015118
0.00137679
0.00123209
0.0010705
0.000869412
0.000979931
0.00116454
0.00136445
0.00153712
0.00165881
0.0017359
0.00178621
0.00181592
0.00183472
0.00184882
0.00186782
0.00189927
0.00195157
0.00202815
0.00211466
0.00217543
0.00219702
0.00218554
0.00215654
0.00211674
0.00206717
0.00200731
0.0019351
0.0018487
0.0017473
0.00163011
0.00149591
0.0013525
0.00118038
0.000798604
0.00085095
0.00100036
0.00119665
0.00138763
0.00153872
0.00164896
0.0017291
0.00178007
0.00181782
0.00184937
0.00188485
0.00193279
0.00200363
0.00210053
0.0022034
0.00227444
0.00230196
0.00229199
0.00226309
0.00222398
0.0021728
0.00211244
0.00204092
0.00195606
0.00185419
0.00173766
0.00160565
0.00146167
0.00128567
0.000779752
0.000764435
0.000862063
0.00103311
0.00122604
0.00139692
0.00153522
0.00164341
0.00172275
0.00178054
0.00183017
0.00188286
0.00194786
0.00203816
0.00215483
0.00227341
0.00235399
0.00238873
0.00238239
0.002355
0.00231736
0.00226618
0.00220678
0.00213613
0.0020516
0.00195042
0.00183547
0.00170787
0.00156039
0.00138012
0.000807277
0.000738816
0.000769969
0.000893858
0.00106968
0.00124632
0.00140449
0.00153645
0.00164135
0.00172443
0.00179346
0.00186397
0.00194629
0.0020565
0.00219214
0.00232576
0.00241845
0.00245887
0.0024574
0.0024335
0.00239808
0.00235015
0.00229108
0.00222064
0.00213678
0.00203775
0.00192562
0.00180101
0.00164858
0.00146344
0.000890461
0.00078209
0.000744472
0.00080666
0.000939001
0.00110261
0.00126786
0.00141631
0.00154217
0.00164832
0.00174089
0.00182999
0.00192973
0.00205982
0.0022135
0.00236139
0.0024645
0.00251569
0.00252162
0.00250004
0.00246701
0.00242298
0.00236481
0.00229551
0.00221295
0.00211636
0.00200987
0.00188247
0.00172536
0.00153522
0.00103129
0.000896759
0.000806114
0.000785859
0.000860619
0.000985884
0.00113896
0.00129273
0.00143293
0.00155813
0.001672
0.00178283
0.00189983
0.0020492
0.00221977
0.00238125
0.0024953
0.00255655
0.00257028
0.00255528
0.00252501
0.00248188
0.00242883
0.00236181
0.00228157
0.00219123
0.00208627
0.00195393
0.00179118
0.00159561
0.00123057
0.00107994
0.000952419
0.000865404
0.000848595
0.000918012
0.00103542
0.00117802
0.00132264
0.00146054
0.00159178
0.0017221
0.00185858
0.00202571
0.00221188
0.00238631
0.00251185
0.00258401
0.0026072
0.0026004
0.00257417
0.00253536
0.00248535
0.00242115
0.00234681
0.00226208
0.00215357
0.00201596
0.00184677
0.00164523
0.00148605
0.00132585
0.0011737
0.00103694
0.000942454
0.000921794
0.00098065
0.00108841
0.00122222
0.00136342
0.00150597
0.00165179
0.00180627
0.0019906
0.00219095
0.00237758
0.00251493
0.00259883
0.00263296
0.00263608
0.00261539
0.0025844
0.00253709
0.00247816
0.00241004
0.00232621
0.00221335
0.00206965
0.00189319
0.00168502
0.00178935
0.00162419
0.00145485
0.00128321
0.00112687
0.00102021
0.000991949
0.00104224
0.00114512
0.00127605
0.0014212
0.00157662
0.00174639
0.0019459
0.00215835
0.00235604
0.00250533
0.00260166
0.00264803
0.00266243
0.0026507
0.00262974
0.00258758
0.00253515
0.00247174
0.00238498
0.00226701
0.00211639
0.00193179
0.00171621
0.00212518
0.00195802
0.00177652
0.00158023
0.00137952
0.0012019
0.00108622
0.00105588
0.001105
0.00120914
0.00134487
0.00150254
0.00168236
0.00189217
0.00211521
0.00232195
0.00248291
0.00259205
0.00265196
0.00267934
0.00268009
0.00266799
0.00263742
0.00259617
0.00253197
0.00243956
0.00231557
0.0021574
0.00196392
0.00174016
0.00247246
0.00230506
0.00211571
0.00190259
0.00167137
0.00144211
0.00125169
0.00113784
0.00111443
0.0011721
0.00128496
0.00143547
0.0016171
0.00182988
0.00205744
0.00227211
0.00244393
0.00256563
0.00263847
0.00268151
0.00269669
0.0026945
0.00267628
0.00264024
0.00257897
0.00248425
0.00235674
0.00219231
0.00199028
0.00175804
0.0028045
0.00263903
0.00244615
0.002223
0.00197264
0.00170918
0.00146356
0.00127645
0.00117759
0.00117282
0.00124691
0.00137802
0.00155105
0.00175776
0.00197783
0.0021906
0.00236895
0.00250425
0.00259736
0.00265194
0.00267857
0.00268863
0.00268371
0.00265844
0.00260377
0.00251319
0.00238236
0.0022172
0.00200975
0.00177035
0.00309195
0.0029295
0.0027373
0.00251097
0.00225192
0.00196969
0.0016886
0.00144623
0.00127955
0.00120934
0.00122902
0.00132332
0.00147038
0.00165517
0.00185547
0.00205451
0.00223073
0.00237391
0.00247884
0.00254862
0.00259448
0.00262254
0.00263753
0.00263037
0.00259308
0.00251342
0.00239037
0.00222154
0.00201613
0.00177524
0.00329633
0.00314041
0.00295444
0.00273297
0.00247563
0.0021883
0.00188945
0.00161118
0.00139102
0.00125838
0.00121855
0.00125582
0.00135857
0.00150391
0.0016648
0.00183528
0.00200012
0.00214095
0.00225362
0.00234209
0.00241099
0.00246276
0.00250445
0.00252408
0.00251433
0.00246275
0.00235782
0.00220517
0.00200053
0.0017646
0.00337822
0.00323504
0.00306313
0.00285564
0.00261042
0.00233066
0.00203022
0.00173553
0.00148071
0.00129661
0.00119596
0.0011701
0.00120874
0.00129782
0.00141594
0.0015519
0.00169034
0.0018194
0.0019342
0.00203441
0.00212127
0.00219779
0.00226455
0.00231298
0.00233589
0.00232157
0.00225568
0.00213014
0.00195532
0.00173488
0.00331422
0.00319422
0.00304673
0.00286379
0.00264207
0.0023841
0.00210201
0.00181776
0.00155988
0.0013554
0.00121902
0.00114897
0.00113704
0.00117846
0.00125968
0.00136039
0.00146305
0.00156484
0.00166056
0.00174995
0.00183387
0.00191088
0.0019807
0.00203896
0.00207918
0.00209119
0.00206167
0.00197819
0.00183257
0.00165092
0.00313083
0.00304769
0.00293865
0.0027958
0.00261565
0.00240214
0.00216787
0.0019313
0.00171427
0.00153648
0.00140952
0.001333
0.00130661
0.00132564
0.00137962
0.00144772
0.00151341
0.00157773
0.00164057
0.00169906
0.00175214
0.00180056
0.0018439
0.00187959
0.00190318
0.00190742
0.00188102
0.00181206
0.00168814
0.0015118
0.00295992
0.00292166
0.00285846
0.0027655
0.00264031
0.00248859
0.00232221
0.00215462
0.00199993
0.00186847
0.00176853
0.00170538
0.00168068
0.00168902
0.00172215
0.00176514
0.00180415
0.00184393
0.00188188
0.00191525
0.00194396
0.00196843
0.0019877
0.00199929
0.00199976
0.00198452
0.00194425
0.00186655
0.00173914
0.00155208
0.00284483
0.00283119
0.00281523
0.00277735
0.00271461
0.00262914
0.00252648
0.00241925
0.00231546
0.00222172
0.00214533
0.0020941
0.00206772
0.00206402
0.00207687
0.00209967
0.00212174
0.0021485
0.00217487
0.00220077
0.00222534
0.002248
0.00226739
0.00228108
0.00228593
0.00227958
0.00225467
0.00220066
0.0021101
0.00197225
0.00279665
0.00280021
0.00280355
0.00278879
0.00275795
0.00271445
0.00265982
0.00259694
0.00253178
0.00246953
0.00241778
0.00237777
0.00235028
0.00233667
0.00233425
0.00234379
0.00235647
0.00237513
0.00239765
0.00242389
0.00245219
0.00248092
0.00250844
0.00253323
0.00255273
0.00256821
0.00257381
0.00256227
0.00253629
0.00249156
0.000192399
0.000199297
0.000196085
0.000190726
0.000183859
0.000176102
0.000167983
0.000159879
0.000152007
0.000144552
0.000137576
0.00013119
0.00012539
0.000120377
0.000116225
0.000113273
0.000111779
0.000112504
0.000115668
0.000120057
0.000123626
0.000125004
0.000123378
0.000118281
0.000109473
9.66965e-05
8.03021e-05
0.000311009
0.000302585
7.57406e-05
0.000803183
0.000924805
0.000930379
0.00088254
0.0008191
0.00075572
0.000698632
0.000648539
0.000604788
0.000566602
0.000532375
0.000502049
0.000473714
0.000449299
0.000427419
0.000410496
0.000398328
0.000397666
0.000406235
0.000422907
0.000441838
0.000457465
0.00045937
0.000440993
0.000403087
0.000351493
0.000296514
0.000264644
0.000314702
0.000326565
0.0012723
0.00149638
0.00155633
0.00152844
0.0014607
0.00137937
0.00129825
0.00122259
0.00115346
0.00109111
0.00103402
0.000982772
0.000934848
0.000893894
0.000858444
0.000831229
0.000811331
0.000805744
0.00080743
0.000818712
0.00083483
0.00085012
0.000843146
0.000804782
0.000738023
0.000643352
0.000536565
0.000433317
0.000406938
0.000458889
0.00159246
0.00187182
0.00196699
0.00197139
0.00192267
0.00184837
0.00176604
0.00168394
0.00160545
0.00153235
0.00146445
0.00140338
0.00134733
0.00130075
0.00126267
0.00123514
0.00121459
0.00120377
0.00119494
0.00119521
0.0012005
0.00120731
0.00119031
0.00113799
0.00104657
0.000920452
0.000775285
0.000622213
0.000523241
0.000525702
0.00178267
0.00204722
0.00219473
0.00224971
0.00223413
0.00217917
0.00210817
0.00203143
0.00195444
0.00188036
0.00181106
0.00174927
0.00169403
0.00165101
0.00161921
0.00159859
0.00158075
0.00156342
0.00154252
0.00152846
0.00152279
0.00152043
0.00149531
0.00143196
0.00132544
0.00117928
0.00100806
0.000821723
0.000669961
0.000615844
0.00189968
0.00215451
0.00232247
0.00240757
0.00242581
0.00239929
0.00234719
0.00228323
0.00221531
0.00214723
0.00208382
0.00202826
0.00198155
0.0019497
0.00193089
0.00192197
0.00190757
0.00188162
0.00184785
0.00182119
0.00180496
0.00179274
0.0017604
0.00169072
0.00157642
0.00141958
0.001233
0.00102499
0.000837703
0.000734932
0.00197597
0.0022002
0.00236907
0.00247639
0.00252585
0.00253009
0.00250476
0.00245782
0.00240203
0.00234447
0.00229368
0.00224995
0.00221816
0.00220391
0.00220335
0.0022096
0.00219707
0.00216094
0.0021144
0.00207626
0.00205069
0.00202983
0.00199288
0.00191954
0.0018023
0.00164185
0.00144851
0.00123017
0.00101873
0.000874958
0.00198031
0.00216694
0.00233828
0.00246859
0.00254941
0.00258539
0.00258791
0.00256534
0.00252921
0.00249034
0.00245017
0.00242246
0.00241077
0.00241963
0.00244166
0.00246493
0.00245214
0.00240522
0.00234688
0.00229887
0.00226523
0.00223747
0.00219602
0.00212303
0.00200604
0.00184723
0.00165578
0.00143116
0.0012059
0.00102677
0.00189542
0.00205739
0.00223865
0.00239522
0.00250837
0.00257771
0.00260989
0.00261457
0.00260175
0.00258251
0.00256237
0.00255338
0.00256549
0.00260094
0.00265018
0.00269047
0.00267572
0.00261841
0.00255016
0.00249457
0.00245322
0.00241982
0.0023745
0.00230235
0.00219119
0.00203864
0.00184718
0.00162211
0.00139046
0.00118396
0.00177105
0.00190625
0.00208808
0.00226615
0.00241239
0.00251698
0.00258091
0.0026142
0.00262713
0.00263137
0.00263457
0.00265014
0.00268741
0.00275284
0.00283185
0.00288789
0.00287068
0.00280451
0.00272892
0.00266792
0.00262115
0.00258173
0.00253282
0.00246178
0.00235915
0.00220998
0.00202279
0.0018026
0.00156911
0.00134258
0.00163995
0.00173297
0.00190426
0.00209752
0.00227322
0.00241134
0.00250868
0.00257239
0.00261302
0.00264282
0.00267222
0.0027158
0.00278045
0.00287943
0.00298791
0.00305747
0.00304009
0.00296745
0.00288775
0.00282296
0.00277132
0.00272699
0.00267498
0.00260601
0.00250637
0.00236445
0.00218396
0.00197171
0.00173997
0.00150395
0.00152019
0.00155722
0.00170169
0.00189984
0.00209935
0.00226913
0.00239983
0.00249544
0.00256531
0.00262271
0.0026803
0.00275314
0.00284795
0.00298174
0.00311999
0.00320178
0.00318665
0.00311132
0.00302931
0.00296288
0.00290808
0.00285863
0.00280456
0.00273614
0.00263852
0.00250413
0.00233272
0.00213003
0.00189962
0.00165739
0.00143179
0.00139664
0.00150028
0.00168797
0.00190137
0.00209813
0.00226081
0.00238856
0.00248936
0.00257568
0.00266265
0.00276621
0.0028932
0.0030647
0.00322987
0.00332191
0.00330841
0.00323471
0.00315648
0.00309108
0.00303417
0.0029803
0.00292639
0.00285553
0.00275953
0.00263165
0.00247195
0.00227525
0.00204678
0.00180042
0.00140113
0.00128711
0.00133124
0.00148533
0.00169545
0.00190927
0.00209931
0.00225774
0.00238952
0.00250634
0.00262336
0.00275818
0.00291901
0.00312784
0.00331544
0.00341943
0.00341355
0.00334732
0.00327242
0.0032097
0.00315142
0.00309662
0.00303956
0.00296709
0.00287281
0.00275435
0.00260157
0.00240811
0.00218091
0.00193142
0.00144412
0.00127993
0.00123605
0.00132693
0.00150712
0.00171985
0.00192656
0.00211063
0.00227153
0.00241861
0.00256639
0.00273156
0.00292836
0.00317153
0.0033814
0.00349606
0.00350104
0.00344698
0.00337821
0.00331961
0.00326282
0.00320759
0.00314695
0.00307354
0.00298443
0.00287231
0.00272106
0.00252918
0.00230195
0.0020494
0.00156468
0.00136768
0.00125402
0.00125742
0.00137469
0.00155671
0.00176002
0.00195845
0.00214286
0.00231775
0.00249528
0.00268933
0.00292261
0.00319598
0.00342545
0.00355279
0.0035727
0.00353336
0.00347457
0.00342232
0.00336928
0.00331317
0.0032508
0.00318054
0.00309588
0.0029833
0.00283171
0.00263918
0.0024102
0.00215403
0.00178762
0.00157243
0.00140663
0.00132032
0.00133745
0.00145798
0.00162517
0.00181767
0.00201389
0.00221031
0.00241405
0.00263585
0.00290203
0.00320087
0.00344726
0.00358923
0.00362904
0.00360932
0.00356114
0.00351764
0.00346874
0.00341674
0.00336017
0.0032921
0.00320554
0.00308992
0.00293469
0.00273888
0.00250623
0.0022454
0.0021034
0.00188123
0.00168215
0.00152502
0.0014397
0.00144657
0.00155237
0.00171013
0.00189835
0.00210454
0.00232678
0.00257489
0.00286791
0.00318446
0.00344496
0.00360312
0.00366466
0.00366581
0.00363456
0.00360183
0.00355952
0.00351647
0.00347007
0.0034055
0.0033141
0.00319153
0.00303003
0.00282863
0.0025904
0.00232381
0.00248545
0.00226228
0.00204286
0.00183663
0.00166711
0.00156758
0.00156397
0.00165772
0.00181202
0.00200992
0.00223878
0.0025065
0.00281703
0.00314122
0.00341311
0.00358843
0.00367385
0.0036979
0.0036858
0.003665
0.0036363
0.00360377
0.00356324
0.00350442
0.00341006
0.00328276
0.00311542
0.00290767
0.00266273
0.0023896
0.00289632
0.00267403
0.00244192
0.00220373
0.00197527
0.00178668
0.0016773
0.00167001
0.00176551
0.00193579
0.00215239
0.0024255
0.00274184
0.00306432
0.00333884
0.00352824
0.00363858
0.00369008
0.00369752
0.00368971
0.00367269
0.00364942
0.00361585
0.00356153
0.0034767
0.0033529
0.00318482
0.0029731
0.00272224
0.00244265
0.00329496
0.00307366
0.00283389
0.00257617
0.00231026
0.00205885
0.00186041
0.00175471
0.00175982
0.00187107
0.00207243
0.00233844
0.00263436
0.00293599
0.00320292
0.00340317
0.00353532
0.00361152
0.00363937
0.00364952
0.0036504
0.00364211
0.00362156
0.00357733
0.00349986
0.00338342
0.00322531
0.00301747
0.00276528
0.00248159
0.00364128
0.00342175
0.00317886
0.0029112
0.00262433
0.00233394
0.00207168
0.00188027
0.00179513
0.00182298
0.00196964
0.00218799
0.00245246
0.00273311
0.00298261
0.00318472
0.0033381
0.00343395
0.00348622
0.0035185
0.00354363
0.00355718
0.00355728
0.00353376
0.00346864
0.0033622
0.00321358
0.00302418
0.00278162
0.0025015
0.00389901
0.00368418
0.00344356
0.00317443
0.00287947
0.002569
0.00226704
0.00201128
0.00184245
0.00178327
0.00183957
0.00199474
0.00221247
0.00245006
0.00267344
0.00287179
0.00303885
0.00314798
0.00322521
0.00328225
0.00333476
0.00337457
0.00340083
0.00340443
0.0033682
0.00328065
0.00314697
0.00296287
0.00274611
0.00248821
0.00403911
0.00383496
0.00360396
0.00334234
0.00305074
0.00273581
0.00241564
0.00212093
0.00188959
0.00175128
0.00171622
0.00178412
0.0019364
0.00213565
0.00233107
0.00252065
0.0026808
0.00279886
0.00289114
0.00296939
0.00304201
0.00310301
0.00315188
0.00318082
0.00317586
0.0031211
0.00301139
0.00285648
0.0026502
0.00241072
0.00404772
0.00386423
0.00365373
0.00341147
0.00313659
0.00283405
0.00251894
0.00221698
0.00196073
0.00177809
0.00168129
0.00167785
0.00176609
0.00191796
0.00208925
0.00225542
0.00239091
0.00250094
0.00259093
0.00267441
0.00274728
0.00281107
0.00286501
0.00290287
0.00291376
0.00288417
0.00280366
0.00266585
0.00249204
0.00229232
0.00394292
0.00379455
0.00362049
0.00341435
0.00317418
0.00290542
0.00262321
0.00235019
0.00211317
0.0019328
0.00181602
0.00178059
0.00182447
0.00192815
0.00206625
0.00219371
0.00229481
0.00237879
0.00245321
0.00251832
0.00257306
0.00261967
0.00265742
0.00268171