/*--------------------------------*- C++ -*----------------------------------*\
| =========                 |                                                 |
| \\      /  F ield         | OpenFOAM: The Open Source CFD Toolbox           |
|  \\    /   O peration     | Version:  5.0                                   |
|   \\  /    A nd           | Web:      www.OpenFOAM.org                      |
|    \\/     M anipulation  |                                                 |
\*---------------------------------------------------------------------------*/
FoamFile
{
    version     2.0;
    format      ascii;
    class       volScalarField;
    location    "1300/porous";
    object      T;
}
// * * * * * * * * * * * * * * * * * * * * * * * * * * * * * * * * * * * * * //

dimensions      [0 0 0 1 0 0 0];

internalField   nonuniform List<scalar> 
36000
(
400
400
400
400
399.999
399.585
399.209
398.857
398.523
398.2
397.887
397.58
397.278
396.98
396.686
396.396
396.109
395.825
395.543
395.264
394.987
394.711
394.435
394.159
393.882
393.606
393.331
393.058
392.789
392.523
392.262
392.007
391.761
391.527
391.312
391.833
392.186
392.455
392.674
392.859
400
400
400
400
399.999
399.634
399.303
398.996
398.706
398.43
398.163
397.903
397.651
397.403
397.161
396.922
396.688
396.457
396.229
396.004
395.781
395.561
395.34
395.12
394.9
394.68
394.462
394.247
394.034
393.825
393.619
393.419
393.226
393.042
392.868
393.211
393.453
393.639
393.787
393.918
400
400
400
400
399.999
399.641
399.319
399.021
398.742
398.477
398.223
397.979
397.742
397.511
397.287
397.068
396.854
396.644
396.438
396.235
396.036
395.84
395.644
395.448
395.253
395.059
394.868
394.678
394.492
394.31
394.131
393.959
393.793
393.635
393.487
393.803
394.029
394.204
394.344
394.465
400
400
400
400
399.999
399.641
399.318
399.022
398.744
398.481
398.23
397.988
397.755
397.528
397.309
397.095
396.886
396.682
396.483
396.288
396.096
395.907
395.719
395.531
395.344
395.159
394.976
394.795
394.618
394.445
394.276
394.113
393.957
393.808
393.669
393.98
394.205
394.378
394.519
394.639
400
400
400
400
399.999
399.641
399.319
399.022
398.745
398.482
398.231
397.99
397.757
397.532
397.313
397.101
396.894
396.691
396.494
396.301
396.112
395.925
395.74
395.554
395.37
395.187
395.007
394.829
394.654
394.484
394.319
394.159
394.006
393.861
393.725
394.034
394.258
394.432
394.573
394.693
400
400
400
400
399.999
399.64
399.318
399.021
398.743
398.48
398.229
397.988
397.755
397.53
397.312
397.099
396.892
396.691
396.494
396.302
396.114
395.928
395.743
395.558
395.374
395.192
395.012
394.835
394.661
394.492
394.327
394.168
394.016
393.872
393.737
394.046
394.27
394.444
394.585
394.705
400
400
400
400
399.999
399.64
399.318
399.022
398.744
398.481
398.23
397.989
397.757
397.532
397.314
397.101
396.895
396.694
396.498
396.306
396.118
395.933
395.748
395.563
395.379
395.197
395.018
394.841
394.668
394.498
394.334
394.176
394.024
393.88
393.745
394.054
394.278
394.451
394.593
394.713
400
400
400
400
399.999
399.64
399.319
399.022
398.745
398.482
398.231
397.99
397.758
397.533
397.315
397.103
396.897
396.696
396.5
396.309
396.122
395.936
395.751
395.566
395.382
395.2
395.021
394.844
394.671
394.502
394.338
394.179
394.028
393.884
393.748
394.057
394.281
394.454
394.596
394.716
400
400
400
400
399.999
399.641
399.319
399.024
398.747
398.485
398.234
397.993
397.762
397.537
397.32
397.108
396.902
396.702
396.507
396.316
396.129
395.943
395.758
395.573
395.39
395.208
395.029
394.852
394.679
394.51
394.346
394.187
394.035
393.891
393.756
394.064
394.288
394.461
394.603
394.722
400
400
400
400
399.999
399.641
399.32
399.025
398.749
398.487
398.237
397.997
397.765
397.541
397.324
397.113
396.908
396.708
396.513
396.322
396.134
395.948
395.763
395.579
395.396
395.214
395.035
394.859
394.686
394.517
394.352
394.194
394.042
393.897
393.762
394.07
394.293
394.467
394.608
394.728
400
400
400
400
399.999
399.642
399.322
399.028
398.752
398.491
398.241
398.001
397.77
397.547
397.331
397.12
396.916
396.717
396.522
396.33
396.141
395.955
395.77
395.587
395.404
395.223
395.044
394.868
394.695
394.526
394.361
394.203
394.05
393.905
393.77
394.078
394.301
394.474
394.615
394.735
400
400
400
400
399.999
399.643
399.323
399.03
398.755
398.494
398.244
398.005
397.774
397.551
397.336
397.126
396.922
396.723
396.527
396.334
396.144
395.958
395.774
395.591
395.409
395.228
395.05
394.874
394.701
394.532
394.368
394.209
394.056
393.911
393.774
394.083
394.306
394.479
394.62
394.739
400
400
400
400
399.999
399.644
399.325
399.032
398.758
398.497
398.248
398.009
397.779
397.556
397.34
397.131
396.928
396.728
396.532
396.337
396.146
395.959
395.776
395.594
395.413
395.233
395.055
394.879
394.707
394.538
394.373
394.214
394.061
393.915
393.778
394.086
394.309
394.482
394.623
394.743
400
400
400
400
399.999
399.645
399.327
399.034
398.76
398.5
398.251
398.012
397.781
397.559
397.343
397.134
396.93
396.73
396.533
396.338
396.146
395.959
395.776
395.594
395.414
395.235
395.058
394.882
394.71
394.541
394.377
394.217
394.064
393.916
393.778
394.086
394.31
394.483
394.624
394.744
400
400
400
400
399.999
399.645
399.328
399.036
398.762
398.502
398.253
398.014
397.783
397.56
397.345
397.135
396.932
396.731
396.533
396.338
396.146
395.959
395.775
395.595
395.415
395.237
395.06
394.885
394.713
394.544
394.379
394.22
394.065
393.917
393.778
394.087
394.31
394.484
394.625
394.745
400
400
400
400
399.999
399.647
399.331
399.039
398.766
398.506
398.256
398.017
397.785
397.562
397.345
397.136
396.932
396.731
396.533
396.338
396.146
395.959
395.776
395.596
395.417
395.239
395.063
394.888
394.715
394.546
394.381
394.221
394.065
393.916
393.774
394.084
394.308
394.482
394.623
394.743
400
400
400
400
399.999
399.648
399.332
399.041
398.767
398.507
398.258
398.017
397.786
397.561
397.345
397.134
396.93
396.73
396.533
396.338
396.146
395.96
395.777
395.597
395.418
395.24
395.063
394.889
394.716
394.547
394.381
394.22
394.064
393.914
393.771
394.082
394.306
394.48
394.621
394.741
400
400
400
400
399.999
399.65
399.334
399.043
398.769
398.509
398.259
398.018
397.786
397.561
397.344
397.133
396.928
396.729
396.532
396.338
396.148
395.961
395.779
395.598
395.419
395.241
395.064
394.889
394.716
394.546
394.38
394.218
394.062
393.911
393.767
394.078
394.303
394.477
394.619
394.739
400
400
400
400
399.999
399.65
399.336
399.044
398.77
398.51
398.259
398.018
397.786
397.56
397.342
397.131
396.926
396.726
396.531
396.338
396.148
395.963
395.78
395.598
395.418
395.239
395.062
394.886
394.713
394.542
394.376
394.213
394.056
393.904
393.759
394.071
394.296
394.471
394.613
394.733
400
400
400
400
399.999
399.651
399.336
399.045
398.771
398.51
398.26
398.018
397.785
397.559
397.341
397.129
396.923
396.724
396.529
396.337
396.149
395.963
395.779
395.596
395.415
395.235
395.058
394.882
394.708
394.537
394.37
394.207
394.048
393.896
393.752
394.064
394.29
394.464
394.606
394.727
400
400
400
400
399.999
399.651
399.337
399.046
398.771
398.51
398.259
398.018
397.784
397.558
397.338
397.126
396.92
396.72
396.526
396.335
396.146
395.96
395.775
395.591
395.409
395.229
395.051
394.874
394.7
394.529
394.361
394.197
394.038
393.886
393.74
394.053
394.279
394.454
394.597
394.718
400
400
400
400
399.999
399.651
399.337
399.046
398.772
398.511
398.26
398.018
397.784
397.557
397.338
397.125
396.919
396.719
396.525
396.334
396.145
395.958
395.772
395.588
395.405
395.224
395.045
394.869
394.694
394.522
394.354
394.189
394.03
393.877
393.732
394.045
394.272
394.447
394.59
394.711
400
400
400
400
399.999
399.652
399.338
399.046
398.772
398.51
398.259
398.017
397.783
397.556
397.336
397.123
396.917
396.717
396.522
396.331
396.142
395.954
395.767
395.582
395.399
395.218
395.039
394.861
394.687
394.514
394.345
394.181
394.021
393.868
393.722
394.036
394.263
394.439
394.582
394.704
400
400
400
400
399.999
399.652
399.338
399.047
398.773
398.512
398.26
398.018
397.784
397.557
397.337
397.124
396.917
396.717
396.523
396.331
396.141
395.953
395.766
395.58
395.397
395.215
395.036
394.859
394.683
394.511
394.342
394.177
394.016
393.863
393.716
394.031
394.259
394.435
394.578
394.7
400
400
400
400
399.999
399.652
399.339
399.048
398.773
398.512
398.26
398.018
397.783
397.556
397.336
397.123
396.916
396.716
396.52
396.328
396.138
395.949
395.761
395.576
395.392
395.21
395.03
394.853
394.677
394.504
394.335
394.169
394.009
393.854
393.708
394.023
394.251
394.427
394.571
394.692
400
400
400
400
399.999
399.653
399.34
399.049
398.775
398.514
398.262
398.02
397.785
397.558
397.338
397.124
396.917
396.717
396.521
396.327
396.136
395.947
395.759
395.572
395.388
395.206
395.025
394.847
394.671
394.497
394.327
394.16
393.999
393.843
393.695
394.011
394.239
394.415
394.559
394.68
400
400
400
400
399.999
399.653
399.34
399.049
398.774
398.512
398.26
398.017
397.782
397.553
397.332
397.117
396.909
396.706
396.508
396.313
396.119
395.927
395.737
395.549
395.362
395.178
394.995
394.814
394.635
394.459
394.286
394.116
393.951
393.792
393.641
393.958
394.186
394.362
394.505
394.627
400
400
400
400
399.999
399.654
399.34
399.047
398.771
398.507
398.252
398.006
397.767
397.534
397.308
397.088
396.874
396.665
396.461
396.258
396.058
395.858
395.661
395.465
395.271
395.078
394.887
394.697
394.51
394.325
394.143
393.963
393.789
393.62
393.459
393.782
394.012
394.189
394.331
394.453
400
400
400
400
399.999
399.647
399.324
399.022
398.734
398.458
398.19
397.928
397.673
397.424
397.179
396.94
396.706
396.476
396.249
396.024
395.8
395.578
395.357
395.136
394.917
394.699
394.482
394.267
394.053
393.842
393.633
393.426
393.224
393.028
392.841
393.191
393.436
393.624
393.774
393.907
400
400
400
400
399.999
399.599
399.231
398.884
398.551
398.228
397.913
397.603
397.298
396.998
396.702
396.411
396.124
395.841
395.561
395.282
395.004
394.727
394.451
394.175
393.9
393.626
393.353
393.082
392.812
392.544
392.279
392.017
391.76
391.511
391.276
391.806
392.164
392.435
392.657
392.844
400
400
400
400
399.999
399.78
399.529
399.261
398.982
398.699
398.413
398.127
397.841
397.556
397.272
396.99
396.71
396.431
396.153
395.878
395.603
395.33
395.057
394.783
394.509
394.235
393.962
393.69
393.421
393.154
392.891
392.633
392.382
392.14
391.912
392.159
392.394
392.605
392.791
392.953
400
400
400
400
400
399.811
399.6
399.374
399.142
398.907
398.671
398.435
398.201
397.969
397.738
397.511
397.285
397.061
396.84
396.621
396.403
396.187
395.972
395.757
395.542
395.328
395.115
394.903
394.692
394.485
394.28
394.079
393.884
393.695
393.513
393.628
393.749
393.866
393.973
394.074
400
400
400
400
400
399.816
399.611
399.394
399.172
398.948
398.725
398.504
398.285
398.07
397.857
397.648
397.443
397.24
397.04
396.843
396.649
396.456
396.265
396.075
395.885
395.697
395.509
395.324
395.14
394.96
394.782
394.609
394.44
394.277
394.122
394.224
394.333
394.439
394.536
394.628
400
400
400
400
400
399.815
399.61
399.394
399.173
398.951
398.73
398.512
398.297
398.085
397.877
397.673
397.472
397.275
397.082
396.892
396.704
396.52
396.336
396.154
395.972
395.792
395.613
395.436
395.261
395.09
394.922
394.758
394.599
394.446
394.299
394.4
394.508
394.612
394.71
394.801
400
400
400
400
400
399.815
399.61
399.394
399.174
398.952
398.731
398.514
398.299
398.088
397.881
397.679
397.479
397.284
397.092
396.904
396.719
396.537
396.356
396.176
395.997
395.819
395.643
395.468
395.297
395.128
394.963
394.802
394.646
394.496
394.353
394.454
394.561
394.666
394.764
394.855
400
400
400
400
400
399.815
399.61
399.393
399.172
398.95
398.729
398.511
398.296
398.085
397.879
397.676
397.477
397.282
397.091
396.903
396.719
396.537
396.357
396.178
395.999
395.822
395.646
395.473
395.302
395.134
394.97
394.81
394.655
394.506
394.364
394.465
394.573
394.677
394.776
394.867
400
400
400
400
400
399.815
399.61
399.393
399.172
398.95
398.73
398.512
398.297
398.087
397.88
397.677
397.479
397.284
397.093
396.906
396.723
396.541
396.361
396.182
396.004
395.827
395.651
395.478
395.308
395.14
394.976
394.817
394.662
394.513
394.371
394.472
394.58
394.685
394.783
394.874
400
400
400
400
400
399.815
399.61
399.393
399.172
398.95
398.729
398.511
398.297
398.087
397.88
397.678
397.479
397.285
397.094
396.908
396.724
396.543
396.363
396.184
396.005
395.828
395.653
395.48
395.31
395.142
394.979
394.819
394.665
394.516
394.374
394.475
394.582
394.687
394.786
394.877
400
400
400
400
400
399.815
399.61
399.394
399.173
398.952
398.731
398.514
398.3
398.09
397.884
397.682
397.484
397.29
397.1
396.913
396.73
396.549
396.369
396.19
396.012
395.835
395.66
395.487
395.317
395.15
394.986
394.826
394.672
394.523
394.381
394.482
394.589
394.694
394.792
394.883
400
400
400
400
400
399.815
399.61
399.395
399.175
398.953
398.733
398.516
398.302
398.092
397.886
397.685
397.487
397.294
397.104
396.918
396.734
396.553
396.373
396.194
396.016
395.84
395.665
395.492
395.322
395.155
394.991
394.832
394.677
394.528
394.386
394.487
394.594
394.699
394.797
394.888
400
400
400
400
400
399.816
399.612
399.396
399.176
398.955
398.736
398.519
398.306
398.096
397.891
397.69
397.494
397.301
397.111
396.925
396.741
396.559
396.38
396.201
396.024
395.847
395.673
395.5
395.33
395.163
394.999
394.84
394.685
394.536
394.394
394.494
394.602
394.706
394.804
394.895
400
400
400
400
400
399.816
399.612
399.397
399.178
398.957
398.738
398.521
398.308
398.1
397.895
397.694
397.498
397.305
397.116
396.929
396.744
396.562
396.383
396.205
396.028
395.852
395.678
395.505
395.335
395.168
395.005
394.845
394.69
394.541
394.398
394.499
394.606
394.711
394.809
394.899
400
400
400
400
400
399.816
399.613
399.399
399.18
398.96
398.741
398.525
398.312
398.103
397.899
397.699
397.503
397.31
397.12
396.932
396.747
396.565
396.385
396.207
396.031
395.856
395.682
395.51
395.34
395.174
395.01
394.85
394.695
394.545
394.402
394.502
394.61
394.714
394.812
394.903
400
400
400
400
400
399.817
399.614
399.4
399.182
398.962
398.743
398.527
398.314
398.105
397.901
397.701
397.505
397.312
397.121
396.933
396.747
396.565
396.385
396.208
396.032
395.857
395.684
395.512
395.343
395.176
395.013
394.853
394.697
394.547
394.403
394.503
394.611
394.715
394.813
394.904
400
400
400
400
400
399.817
399.615
399.401
399.183
398.963
398.745
398.528
398.316
398.107
397.902
397.702
397.506
397.313
397.122
396.933
396.747
396.565
396.385
396.208
396.032
395.858
395.686
395.514
395.345
395.179
395.015
394.855
394.699
394.549
394.404
394.504
394.611
394.716
394.814
394.905
400
400
400
400
400
399.818
399.617
399.404
399.185
398.966
398.747
398.531
398.318
398.109
397.904
397.703
397.507
397.314
397.123
396.934
396.748
396.565
396.386
396.209
396.034
395.86
395.687
395.516
395.347
395.181
395.017
394.856
394.7
394.548
394.402
394.502
394.61
394.714
394.812
394.903
400
400
400
400
400
399.819
399.617
399.405
399.187
398.967
398.748
398.532
398.318
398.109
397.903
397.703
397.506
397.313
397.122
396.933
396.748
396.565
396.386
396.209
396.034
395.86
395.688
395.517
395.348
395.181
395.017
394.856
394.699
394.547
394.4
394.5
394.608
394.713
394.811
394.902
400
400
400
400
400
399.819
399.619
399.406
399.188
398.968
398.75
398.533
398.319
398.109
397.903
397.702
397.505
397.312
397.122
396.934
396.749
396.567
396.388
396.211
396.035
395.861
395.689
395.518
395.348
395.181
395.016
394.855
394.698
394.545
394.397
394.498
394.605
394.71
394.808
394.899
400
400
400
400
400
399.82
399.619
399.407
399.189
398.969
398.75
398.533
398.319
398.109
397.903
397.701
397.503
397.31
397.12
396.933
396.748
396.567
396.388
396.211
396.035
395.86
395.687
395.516
395.346
395.178
395.013
394.851
394.693
394.54
394.391
394.492
394.599
394.704
394.803
394.894
400
400
400
400
400
399.82
399.62
399.408
399.19
398.97
398.751
398.534
398.319
398.109
397.902
397.7
397.502
397.309
397.119
396.932
396.749
396.567
396.388
396.21
396.033
395.858
395.685
395.513
395.343
395.174
395.009
394.847
394.688
394.534
394.385
394.486
394.594
394.699
394.797
394.888
400
400
400
400
400
399.82
399.62
399.408
399.19
398.97
398.751
398.533
398.319
398.108
397.901
397.698
397.5
397.306
397.117
396.93
396.746
396.565
396.385
396.206
396.029
395.853
395.679
395.507
395.336
395.167
395.001
394.838
394.679
394.525
394.375
394.476
394.584
394.689
394.788
394.88
400
400
400
400
400
399.82
399.62
399.409
399.191
398.971
398.752
398.534
398.32
398.108
397.901
397.698
397.5
397.306
397.116
396.93
396.746
396.564
396.383
396.204
396.026
395.85
395.676
395.503
395.332
395.163
394.996
394.833
394.673
394.518
394.368
394.469
394.578
394.683
394.782
394.874
400
400
400
400
400
399.82
399.621
399.409
399.191
398.971
398.752
398.534
398.319
398.108
397.9
397.697
397.498
397.304
397.115
396.928
396.744
396.561
396.38
396.2
396.022
395.845
395.67
395.497
395.326
395.156
394.989
394.826
394.666
394.51
394.36
394.461
394.57
394.675
394.774
394.866
400
400
400
400
400
399.821
399.621
399.41
399.192
398.973
398.753
398.536
398.321
398.11
397.902
397.699
397.5
397.306
397.116
396.929
396.745
396.562
396.38
396.2
396.022
395.845
395.669
395.496
395.324
395.154
394.987
394.823
394.663
394.507
394.357
394.458
394.566
394.672
394.771
394.863
400
400
400
400
400
399.821
399.622
399.41
399.193
398.973
398.753
398.536
398.321
398.109
397.902
397.698
397.499
397.305
397.115
396.927
396.742
396.559
396.377
396.196
396.018
395.84
395.665
395.491
395.319
395.149
394.981
394.817
394.656
394.5
394.349
394.45
394.558
394.664
394.763
394.855
400
400
400
400
400
399.821
399.623
399.412
399.195
398.975
398.756
398.538
398.324
398.112
397.904
397.701
397.502
397.307
397.116
396.928
396.742
396.558
396.376
396.195
396.015
395.837
395.661
395.487
395.314
395.143
394.975
394.809
394.647
394.49
394.338
394.439
394.547
394.653
394.752
394.844
400
400
400
400
400
399.821
399.623
399.411
399.194
398.974
398.754
398.536
398.32
398.108
397.899
397.694
397.494
397.297
397.105
396.914
396.726
396.54
396.355
396.172
395.99
395.81
395.631
395.454
395.279
395.105
394.934
394.766
394.601
394.44
394.285
394.386
394.494
394.6
394.698
394.79
400
400
400
400
400
399.822
399.623
399.411
399.192
398.97
398.748
398.527
398.308
398.091
397.878
397.668
397.462
397.26
397.061
396.864
396.669
396.475
396.283
396.092
395.903
395.714
395.527
395.342
395.158
394.976
394.796
394.618
394.443
394.273
394.108
394.21
394.32
394.427
394.525
394.618
400
400
400
400
400
399.817
399.612
399.391
399.162
398.928
398.692
398.457
398.222
397.988
397.757
397.528
397.302
397.079
396.858
396.639
396.421
396.205
395.988
395.773
395.559
395.345
395.133
394.921
394.711
394.502
394.295
394.09
393.889
393.691
393.5
393.614
393.736
393.854
393.962
394.064
400
400
400
400
399.999
399.787
399.543
399.279
399.003
398.72
398.435
398.148
397.861
397.574
397.289
397.005
396.725
396.446
396.17
395.895
395.62
395.346
395.072
394.799
394.526
394.254
393.982
393.712
393.443
393.175
392.909
392.646
392.386
392.133
391.89
392.138
392.375
392.588
392.775
392.939
400
400
400
400
400
399.862
399.703
399.524
399.329
399.12
398.9
398.671
398.435
398.194
397.948
397.699
397.447
397.193
396.938
396.682
396.425
396.167
395.909
395.649
395.387
395.125
394.863
394.6
394.339
394.079
393.821
393.566
393.315
393.072
392.837
392.911
393.005
393.109
393.215
393.313
400
400
400
400
400
399.881
399.748
399.601
399.442
399.275
399.1
398.919
398.733
398.544
398.353
398.159
397.964
397.768
397.572
397.375
397.178
396.981
396.783
396.585
396.387
396.188
395.989
395.79
395.592
395.396
395.201
395.008
394.818
394.633
394.453
394.453
394.468
394.494
394.525
394.561
400
400
400
400
400
399.884
399.755
399.614
399.463
399.305
399.141
398.973
398.801
398.628
398.453
398.277
398.101
397.925
397.749
397.574
397.399
397.225
397.051
396.878
396.704
396.53
396.357
396.185
396.014
395.844
395.676
395.511
395.348
395.19
395.036
395.038
395.051
395.073
395.099
395.13
400
400
400
400
400
399.884
399.755
399.614
399.464
399.307
399.145
398.979
398.811
398.64
398.469
398.298
398.127
397.956
397.786
397.617
397.449
397.282
397.116
396.95
396.784
396.618
396.453
396.289
396.127
395.966
395.807
395.651
395.498
395.349
395.204
395.209
395.224
395.247
395.275
395.307
400
400
400
400
400
399.884
399.755
399.614
399.465
399.308
399.146
398.981
398.813
398.644
398.473
398.303
398.133
397.964
397.796
397.629
397.463
397.298
397.134
396.97
396.806
396.643
396.481
396.32
396.16
396.002
395.846
395.693
395.544
395.398
395.256
395.262
395.278
395.301
395.33
395.363
400
400
400
400
400
399.884
399.754
399.614
399.464
399.306
399.144
398.979
398.81
398.641
398.471
398.3
398.13
397.961
397.794
397.627
397.462
397.298
397.134
396.97
396.807
396.645
396.484
396.323
396.164
396.007
395.852
395.7
395.551
395.406
395.266
395.272
395.288
395.312
395.341
395.374
400
400
400
400
400
399.884
399.754
399.614
399.464
399.307
399.145
398.979
398.811
398.641
398.471
398.301
398.132
397.963
397.795
397.629
397.464
397.3
397.137
396.974
396.811
396.649
396.488
396.328
396.169
396.012
395.857
395.706
395.557
395.412
395.272
395.279
395.295
395.319
395.348
395.381
400
400
400
400
400
399.884
399.755
399.614
399.464
399.307
399.144
398.978
398.81
398.641
398.471
398.301
398.131
397.962
397.795
397.629
397.464
397.3
397.137
396.974
396.811
396.649
396.488
396.328
396.169
396.013
395.858
395.706
395.558
395.413
395.273
395.28
395.296
395.32
395.349
395.383
400
400
400
400
400
399.884
399.755
399.614
399.464
399.308
399.146
398.98
398.812
398.643
398.473
398.303
398.134
397.966
397.799
397.633
397.469
397.305
397.142
396.979
396.816
396.654
396.493
396.334
396.175
396.018
395.864
395.712
395.564
395.419
395.279
395.286
395.302
395.326
395.355
395.389
400
400
400
400
400
399.884
399.755
399.615
399.465
399.308
399.146
398.981
398.813
398.644
398.475
398.305
398.136
397.968
397.802
397.636
397.471
397.308
397.145
396.982
396.819
396.658
396.497
396.337
396.179
396.022
395.868
395.716
395.568
395.423
395.283
395.29
395.306
395.33
395.359
395.392
400
400
400
400
400
399.884
399.756
399.616
399.466
399.31
399.148
398.983
398.816
398.647
398.478
398.309
398.141
397.973
397.807
397.641
397.476
397.313
397.15
396.987
396.825
396.664
396.503
396.344
396.186
396.029
395.875
395.723
395.575
395.43
395.29
395.296
395.313
395.337
395.365
395.399
400
400
400
400
400
399.885
399.756
399.616
399.467
399.311
399.15
398.985
398.818
398.649
398.481
398.312
398.144
397.976
397.81
397.644
397.479
397.315
397.152
396.99
396.828
396.667
396.507
396.347
396.189
396.033
395.879
395.727
395.579
395.434
395.294
395.3
395.316
395.34
395.369
395.403
400
400
400
400
400
399.885
399.757
399.617
399.469
399.313
399.152
398.987
398.82
398.652
398.483
398.315
398.147
397.98
397.813
397.647
397.482
397.317
397.155
396.993
396.831
396.67
396.51
396.351
396.193
396.037
395.883
395.732
395.583
395.438
395.297
395.304
395.32
395.344
395.373
395.406
400
400
400
400
400
399.885
399.757
399.618
399.47
399.314
399.153
398.989
398.822
398.654
398.485
398.317
398.149
397.982
397.815
397.648
397.482
397.318
397.155
396.993
396.832
396.671
396.511
396.353
396.195
396.039
395.885
395.734
395.585
395.44
395.298
395.305
395.321
395.345
395.374
395.407
400
400
400
400
400
399.885
399.758
399.619
399.47
399.315
399.154
398.99
398.823
398.655
398.486
398.318
398.15
397.983
397.815
397.648
397.483
397.318
397.155
396.993
396.832
396.672
396.513
396.354
396.197
396.041
395.887
395.735
395.587
395.441
395.299
395.306
395.322
395.346
395.375
395.408
400
400
400
400
400
399.886
399.759
399.62
399.472
399.317
399.156
398.992
398.825
398.656
398.487
398.319
398.151
397.983
397.816
397.649
397.483
397.319
397.156
396.994
396.833
396.673
396.514
396.356
396.198
396.043
395.889
395.737
395.588
395.441
395.299
395.305
395.321
395.345
395.374
395.407
400
400
400
400
400
399.886
399.759
399.621
399.473
399.318
399.157
398.992
398.825
398.656
398.487
398.319
398.15
397.983
397.816
397.649
397.483
397.319
397.156
396.994
396.834
396.674
396.514
396.356
396.199
396.043
395.889
395.737
395.587
395.441
395.297
395.304
395.32
395.344
395.372
395.406
400
400
400
400
400
399.887
399.76
399.622
399.474
399.319
399.158
398.993
398.826
398.657
398.488
398.319
398.15
397.983
397.816
397.649
397.484
397.32
397.157
396.996
396.835
396.675
396.515
396.357
396.2
396.043
395.889
395.737
395.587
395.44
395.296
395.302
395.318
395.342
395.371
395.404
400
400
400
400
400
399.887
399.761
399.622
399.475
399.319
399.158
398.994
398.826
398.657
398.488
398.318
398.149
397.982
397.815
397.649
397.484
397.32
397.157
396.995
396.834
396.674
396.514
396.356
396.198
396.042
395.887
395.734
395.584
395.436
395.292
395.298
395.314
395.337
395.366
395.4
400
400
400
400
400
399.887
399.761
399.623
399.475
399.32
399.159
398.994
398.827
398.657
398.488
398.318
398.149
397.981
397.814
397.649
397.484
397.32
397.158
396.995
396.834
396.673
396.513
396.354
396.196
396.039
395.884
395.731
395.58
395.432
395.288
395.294
395.31
395.333
395.362
395.395
400
400
400
400
400
399.887
399.761
399.623
399.475
399.32
399.159
398.994
398.826
398.657
398.487
398.317
398.148
397.98
397.813
397.647
397.482
397.319
397.155
396.993
396.831
396.67
396.509
396.35
396.191
396.034
395.878
395.725
395.573
395.425
395.28
395.286
395.302
395.326
395.354
395.388
400
400
400
400
400
399.887
399.761
399.623
399.476
399.321
399.16
398.995
398.827
398.658
398.488
398.318
398.148
397.98
397.813
397.648
397.483
397.319
397.155
396.992
396.83
396.668
396.508
396.348
396.189
396.031
395.875
395.721
395.57
395.421
395.276
395.282
395.297
395.321
395.35
395.383
400
400
400
400
400
399.887
399.761
399.624
399.476
399.321
399.16
398.995
398.827
398.657
398.487
398.317
398.147
397.979
397.812
397.646
397.481
397.317
397.153
396.99
396.827
396.665
396.504
396.344
396.185
396.027
395.87
395.716
395.564
395.415
395.269
395.275
395.291
395.314
395.343
395.377
400
400
400
400
400
399.888
399.762
399.624
399.477
399.322
399.161
398.996
398.829
398.659
398.489
398.319
398.15
397.981
397.815
397.649
397.483
397.319
397.154
396.991
396.828
396.666
396.505
396.344
396.185
396.027
395.87
395.715
395.563
395.414
395.268
395.273
395.289
395.313
395.341
395.375
400
400
400
400
400
399.888
399.762
399.624
399.477
399.322
399.161
398.996
398.829
398.659
398.489
398.319
398.149
397.981
397.814
397.647
397.482
397.317
397.152
396.988
396.825
396.663
396.501
396.34
396.181
396.022
395.865
395.71
395.557
395.407
395.261
395.267
395.282
395.306
395.334
395.368
400
400
400
400
400
399.888
399.763
399.625
399.479
399.324
399.164
398.999
398.831
398.662
398.492
398.322
398.152
397.983
397.816
397.649
397.483
397.317
397.152
396.988
396.824
396.661
396.499
396.337
396.177
396.018
395.86
395.704
395.55
395.399
395.252
395.257
395.272
395.295
395.323
395.356
400
400
400
400
400
399.888
399.762
399.625
399.478
399.323
399.162
398.997
398.829
398.658
398.487
398.316
398.145
397.975
397.805
397.637
397.468
397.301
397.133
396.967
396.801
396.635
396.47
396.306
396.143
395.981
395.821
395.662
395.505
395.351
395.2
395.204
395.219
395.241
395.269
395.301
400
400
400
400
400
399.888
399.763
399.625
399.476
399.32
399.157
398.99
398.818
398.644
398.469
398.293
398.117
397.942
397.767
397.592
397.417
397.242
397.068
396.894
396.72
396.547
396.374
396.202
396.03
395.859
395.69
395.522
395.356
395.192
395.032
395.034
395.046
395.068
395.094
395.125
400
400
400
400
400
399.885
399.755
399.611
399.455
399.289
399.115
398.935
398.749
398.56
398.368
398.174
397.979
397.784
397.588
397.391
397.194
396.997
396.799
396.6
396.402
396.204
396.005
395.807
395.609
395.412
395.216
395.02
394.827
394.636
394.449
394.449
394.463
394.488
394.519
394.555
400
400
400
400
400
399.867
399.711
399.536
399.343
399.135
398.916
398.688
398.451
398.209
397.962
397.713
397.461
397.207
396.953
396.697
396.44
396.182
395.923
395.663
395.403
395.142
394.88
394.619
394.358
394.098
393.838
393.58
393.324
393.072
392.826
392.899
392.993
393.097
393.203
393.302
400
400
400
400
400
399.894
399.777
399.647
399.506
399.354
399.192
399.02
398.839
398.651
398.455
398.253
398.045
397.833
397.616
397.395
397.171
396.943
396.713
396.479
396.243
396.004
395.764
395.522
395.279
395.036
394.793
394.551
394.312
394.077
393.848
393.845
393.855
393.877
393.907
393.934
400
400
400
400
400
399.908
399.809
399.702
399.587
399.466
399.339
399.205
399.067
398.923
398.775
398.624
398.469
398.311
398.151
397.988
397.823
397.657
397.488
397.318
397.145
396.972
396.797
396.621
396.445
396.269
396.093
395.918
395.745
395.574
395.406
395.369
395.338
395.314
395.296
395.28
400
400
400
400
400
399.91
399.814
399.711
399.602
399.487
399.368
399.244
399.117
398.986
398.852
398.716
398.577
398.437
398.295
398.152
398.008
397.863
397.717
397.569
397.421
397.271
397.121
396.971
396.821
396.671
396.522
396.374
396.228
396.083
395.942
395.914
395.889
395.87
395.855
395.843
400
400
400
400
400
399.91
399.814
399.711
399.603
399.489
399.371
399.25
399.124
398.996
398.866
398.733
398.599
398.463
398.326
398.189
398.051
397.912
397.772
397.632
397.49
397.348
397.206
397.064
396.922
396.781
396.64
396.501
396.364
396.229
396.097
396.073
396.052
396.037
396.024
396.017
400
400
400
400
400
399.91
399.814
399.711
399.603
399.49
399.372
399.251
399.126
398.999
398.869
398.737
398.604
398.47
398.335
398.199
398.062
397.926
397.788
397.65
397.51
397.371
397.231
397.092
396.952
396.814
396.676
396.54
396.406
396.274
396.145
396.123
396.104
396.089
396.078
396.073
400
400
400
400
400
399.91
399.814
399.711
399.602
399.489
399.371
399.249
399.124
398.997
398.867
398.735
398.602
398.468
398.333
398.197
398.061
397.925
397.788
397.65
397.511
397.372
397.233
397.094
396.956
396.818
396.681
396.546
396.412
396.282
396.153
396.131
396.113
396.099
396.089
396.084
400
400
400
400
400
399.91
399.814
399.711
399.603
399.489
399.371
399.25
399.125
398.997
398.867
398.736
398.603
398.469
398.334
398.199
398.063
397.927
397.79
397.652
397.514
397.375
397.236
397.098
396.959
396.822
396.685
396.55
396.417
396.287
396.159
396.137
396.119
396.105
396.095
396.091
400
400
400
400
400
399.91
399.814
399.711
399.603
399.489
399.371
399.249
399.124
398.997
398.867
398.735
398.602
398.468
398.333
398.198
398.062
397.926
397.789
397.652
397.513
397.375
397.236
397.097
396.959
396.822
396.685
396.55
396.417
396.287
396.159
396.137
396.119
396.106
396.096