/*--------------------------------*- C++ -*----------------------------------*\
| =========                 |                                                 |
| \\      /  F ield         | OpenFOAM: The Open Source CFD Toolbox           |
|  \\    /   O peration     | Version:  5.0                                   |
|   \\  /    A nd           | Web:      www.OpenFOAM.org                      |
|    \\/     M anipulation  |                                                 |
\*---------------------------------------------------------------------------*/
FoamFile
{
    version     2.0;
    format      ascii;
    class       volScalarField;
    location    "1150/air";
    object      alphat;
}
// * * * * * * * * * * * * * * * * * * * * * * * * * * * * * * * * * * * * * //

dimensions      [1 -1 -1 0 0 0 0];

internalField   nonuniform List<scalar> 
243000
(
0.000141069
0.000148724
0.000148358
0.000145689
0.000141491
0.000136452
0.000131023
0.000125481
0.000119962
0.000114569
0.000109313
0.000104262
9.94798e-05
9.52362e-05
9.17589e-05
8.94474e-05
8.83135e-05
8.80812e-05
8.82271e-05
8.83532e-05
8.82403e-05
8.78332e-05
8.71737e-05
0.000385834
0.000382899
0.000379185
0.000375868
0.000365398
0.000350678
8.79313e-05
0.000613951
0.000669381
0.000689532
0.000698478
0.00069954
0.000695793
0.0006886
0.000678812
0.000666911
0.000653285
0.000638082
0.000622116
0.000605982
0.000591457
0.000579713
0.000572656
0.000568815
0.000565712
0.000560281
0.000551295
0.000538864
0.000523479
0.000505632
0.00048684
0.000466536
0.000445985
0.000424319
0.000392936
0.000356197
0.000360618
0.000651089
0.000714089
0.00073819
0.000750277
0.000753171
0.00075051
0.000743933
0.000734449
0.000722649
0.000709123
0.000694258
0.000679109
0.000664414
0.00065214
0.000643329
0.000639619
0.000638459
0.000636586
0.000630833
0.000620312
0.000605686
0.000587752
0.000567105
0.000544317
0.000519914
0.000494941
0.000469059
0.000436749
0.000399252
0.000375865
0.000643254
0.000720282
0.000755063
0.00077345
0.000780302
0.000780728
0.000776466
0.000768763
0.000758431
0.000746301
0.000733012
0.000719846
0.000707691
0.000698655
0.000693594
0.000693767
0.000695526
0.000695126
0.000689379
0.000677754
0.000661395
0.00064141
0.000618524
0.000593244
0.000566113
0.000537859
0.000508776
0.0004759
0.000438569
0.00040759
0.000605782
0.000699485
0.000746014
0.000773156
0.000787288
0.00079293
0.000792383
0.000787671
0.000779895
0.000770168
0.000759428
0.000749197
0.000740488
0.00073548
0.000734746
0.000739042
0.000743678
0.000744722
0.000739083
0.000726626
0.000708906
0.000687306
0.000662686
0.000635568
0.000606428
0.000575823
0.000544273
0.000510359
0.000473355
0.00043927
0.000566187
0.000661901
0.000718407
0.000755709
0.000778162
0.000790343
0.000795028
0.000794492
0.000790303
0.000783893
0.000776548
0.000770067
0.00076558
0.000765225
0.00076931
0.000777775
0.000785143
0.000787497
0.000781984
0.000768872
0.000750058
0.00072718
0.00070124
0.000672755
0.000642148
0.000609906
0.000576567
0.000541335
0.000504344
0.000468541
0.000528557
0.000620808
0.000682222
0.000724352
0.000755693
0.000775419
0.000786509
0.000791321
0.000791731
0.000789502
0.000786375
0.000784395
0.000784791
0.000789714
0.000798921
0.000811503
0.000821405
0.000824898
0.000819497
0.000805857
0.000786153
0.000762242
0.000735286
0.000705806
0.000674161
0.000640798
0.000606202
0.000569653
0.000532407
0.000495635
0.000506184
0.000574818
0.000642599
0.000691201
0.000726774
0.000751158
0.000768897
0.00077977
0.000785643
0.000788439
0.000790297
0.000793545
0.000799513
0.0008102
0.000824713
0.00084129
0.000853495
0.000857961
0.000852617
0.000838552
0.000818122
0.000793376
0.000765609
0.000735416
0.000703088
0.000668984
0.000633535
0.000596042
0.000558252
0.000520882
0.000523031
0.000539171
0.000599625
0.000654242
0.000695749
0.000725086
0.00074635
0.000761894
0.0007734
0.000781836
0.000789371
0.000798547
0.000810721
0.000827629
0.000847475
0.000867884
0.000882153
0.000887424
0.000882097
0.00086767
0.000846653
0.000821233
0.000792829
0.000762116
0.000729372
0.00069482
0.000658816
0.00062073
0.000582311
0.000544507
0.000559032
0.000541679
0.000564005
0.000614255
0.00066131
0.000696769
0.000722812
0.000741975
0.000756847
0.000770781
0.000784445
0.000800357
0.00081918
0.000842639
0.000867812
0.000891831
0.000907917
0.000913838
0.000908497
0.00089376
0.000872272
0.000846331
0.000817436
0.000786342
0.000753344
0.000718579
0.000682255
0.000643805
0.000604838
0.000566671
0.000598587
0.000579501
0.000559002
0.00058064
0.000624696
0.000665521
0.000697351
0.000721216
0.000739711
0.000756734
0.000776372
0.000799258
0.000825486
0.000855762
0.00088617
0.00091351
0.000931197
0.00093761
0.000932237
0.000917243
0.000895403
0.000869071
0.000839815
0.000808455
0.000775322
0.000740498
0.000704045
0.000665408
0.000626025
0.000587523
0.000638268
0.000622471
0.000597209
0.000574994
0.000594463
0.000632938
0.0006697
0.000699053
0.000722089
0.000742484
0.000766124
0.000796238
0.000830197
0.000867417
0.000902872
0.000933216
0.000952264
0.000959042
0.000953625
0.000938441
0.000916355
0.000889771
0.000860288
0.000828777
0.000795612
0.000760845
0.000724407
0.000685759
0.000645955
0.000607179
0.000677546
0.000664705
0.000642319
0.00061067
0.000588646
0.000606151
0.000641376
0.000675449
0.000703665
0.000728303
0.000754979
0.000791826
0.000833836
0.000877908
0.000918135
0.000951148
0.000971325
0.000978356
0.000972898
0.000957591
0.000935366
0.000908667
0.000879093
0.000847553
0.000814463
0.000779852
0.000743532
0.000704955
0.000664826
0.000625811
0.000716529
0.000705359
0.000685667
0.000655787
0.000614813
0.000597802
0.000617346
0.000651499
0.000684469
0.000713982
0.000744625
0.000786578
0.000836569
0.000887428
0.00093209
0.000967429
0.000988519
0.000995716
0.000990233
0.000974877
0.000952613
0.00092593
0.000896403
0.000864962
0.000832058
0.000797686
0.000761576
0.000723106
0.000682773
0.000643623
0.000755339
0.000744721
0.000726491
0.000698842
0.000659878
0.000616034
0.000606032
0.000630175
0.00066516
0.000699541
0.000734868
0.00078089
0.000838657
0.000896079
0.000944793
0.000982125
0.00100394
0.00101124
0.00100576
0.000990439
0.00096824
0.000941696
0.000912355
0.000881144
0.000848535
0.000814484
0.000778662
0.000740368
0.000699951
0.000660761
0.000794085
0.000783194
0.000765389
0.000739065
0.000701968
0.000651193
0.000613655
0.000616332
0.000647236
0.000685321
0.000725672
0.000775185
0.000840277
0.000903894
0.00095624
0.000995253
0.00101764
0.00102501
0.00101957
0.00100437
0.000982354
0.000956068
0.000927052
0.000896213
0.000863996
0.000830333
0.000794859
0.000756837
0.000716448
0.000677306
0.00083279
0.000821046
0.000802951
0.00077708
0.000741316
0.000692392
0.000638886
0.00061458
0.000633039
0.000671945
0.000717131
0.000770728
0.000841577
0.000910829
0.000966375
0.00100679
0.00102964
0.00103707
0.00103173
0.00101675
0.000995026
0.000969132
0.00094058
0.000910243
0.000878529
0.000845354
0.000810298
0.000772607
0.000732347
0.0006933
0.000871445
0.00085842
0.000839541
0.000813497
0.000778401
0.000731845
0.000673207
0.000626646
0.000625193
0.000660365
0.000709303
0.000767103
0.00084256
0.000916793
0.000975101
0.00101669
0.00103992
0.00104745
0.00104229
0.00102762
0.00100635
0.000980977
0.000953014
0.000923305
0.00089221
0.000859622
0.000825064
0.000787778
0.000747725
0.000708842
0.000909971
0.00089537
0.000875371
0.00084873
0.000813697
0.000768005
0.000709458
0.000649332
0.00062524
0.000651679
0.000702491
0.00076418
0.000843145
0.000921665
0.000982298
0.00102486
0.00104846
0.00105616
0.00105129
0.00103709
0.00101641
0.00099167
0.000964412
0.000935453
0.000905094
0.000873202
0.000839239
0.000802452
0.000762665
0.000724009
0.000948395
0.000931966
0.000910596
0.000883054
0.000847671
0.00080242
0.000745026
0.000678147
0.000634088
0.000646696
0.000696973
0.000761861
0.00084315
0.000925361
0.00098784
0.00103124
0.0010552
0.00106324
0.0010588
0.00104522
0.00102525
0.00100127
0.000974841
0.000946754
0.000917251
0.000886166
0.000852927
0.000816755
0.000777278
0.000738875
0.000986745
0.000968342
0.000945403
0.000916737
0.000880783
0.000836686
0.000779529
0.000709465
0.000650249
0.000645717
0.000692995
0.000760105
0.000842444
0.00092751
0.000991549
0.00103571
0.00106011
0.00106865
0.00106481
0.00105202
0.00103291
0.00100984
0.000984371
0.000957284
0.000928773
0.00089864
0.00086626
0.000830836
0.000791696
0.000753562
0.00102582
0.00100503
0.000980243
0.000950255
0.000913714
0.000869914
0.000812625
0.000741003
0.000671249
0.00065021
0.000690927
0.000759
0.000841015
0.000927644
0.000993182
0.00103807
0.00106305
0.0010723
0.00106927
0.00105746
0.00103941
0.00101743
0.000993073
0.000967132
0.00093977
0.000910743
0.000879406
0.000844904
0.00080623
0.000768296
0.00106483
0.00104295
0.00101618
0.000984919
0.000949198
0.000903615
0.00084507
0.000772097
0.000695321
0.000659133
0.000690883
0.000758606
0.000839756
0.000925833
0.000992322
0.00103809
0.00106374
0.00107391
0.00107197
0.00106139
0.00104464
0.00102397
0.00100096
0.000976374
0.000950364
0.000922638
0.000892582
0.000859218
0.000821311
0.000783412
0.00110204
0.00108036
0.00105525
0.00102419
0.000984947
0.000936817
0.000876746
0.000802588
0.000721238
0.00067201
0.000693434
0.000759231
0.000839184
0.000922182
0.000988549
0.0010349
0.00106142
0.00107281
0.00107218
0.0010632
0.00104821
0.00102919
0.00100781
0.000984883
0.000960527
0.000934402
0.000905864
0.000873906
0.000837047
0.000799061
0.00113778
0.00111831
0.0010932
0.00106024
0.00101833
0.000968697
0.000907868
0.000833152
0.000749001
0.000689141
0.000699791
0.000762007
0.000840268
0.000919528
0.000982668
0.00102805
0.00105533
0.0010681
0.00106913
0.00106197
0.00104886
0.00103195
0.00101275
0.000991952
0.000969657
0.000945596
0.000918984
0.000888704
0.000853097
0.000815294
0.00116759
0.00114737
0.0011217
0.00108817
0.00104811
0.000999811
0.000940099
0.000866252
0.000781205
0.000713705
0.00071309
0.00077137
0.000847556
0.000922969
0.000983076
0.00102661
0.00105356
0.00106703
0.00106958
0.00106402
0.00105247
0.00103681
0.0010185
0.000998378
0.000977054
0.000955196
0.000930934
0.000902784
0.000868798
0.000832528
0.00118873
0.00116853
0.00114518
0.00111632
0.00108041
0.00103559
0.000979265
0.000908927
0.00082652
0.000755989
0.000744932
0.000797941
0.000870786
0.000941887
0.000998504
0.00103941
0.00106513
0.00107834
0.0010817
0.00107723
0.0010668
0.00105214
0.00103459
0.00101504
0.00099413
0.000972248
0.000948464
0.00092175
0.000890598
0.000855627
0.00122672
0.00120724
0.00118532
0.00115962
0.00112853
0.00109002
0.00104166
0.000981323
0.000910504
0.000846967
0.000830785
0.000875061
0.000940281
0.00100356
0.00105346
0.00108893
0.00111066
0.0011218
0.00112426
0.00111957
0.00110931
0.00109495
0.00107766
0.00105826
0.00103737
0.00101522
0.000991313
0.000964911
0.000934693
0.000899649
0.00130249
0.00128722
0.00127176
0.0012554
0.00123674
0.00121385
0.00118475
0.00114832
0.00110614
0.00106813
0.00105763
0.00108719
0.00113269
0.00117706
0.00121146
0.00123461
0.00124749
0.00125285
0.00125187
0.00124544
0.00123473
0.00122064
0.00120399
0.0011854
0.00116528
0.00114318
0.00111879
0.00109225
0.001063
0.00102892
0.00156393
0.00156377
0.00156578
0.00156716
0.00156678
0.00156363
0.00155707
0.00154771
0.0015368
0.00152507
0.00151957
0.00152411
0.0015353
0.00154759
0.00155592
0.00156159
0.00156365
0.00156431
0.0015634
0.00156184
0.00155955
0.00155676
0.00155353
0.00154999
0.00154569
0.00153725
0.00152394
0.00150947
0.00149657
0.00147856
0.000173459
0.00018428
0.000185393
0.000182862
0.00017821
0.000172421
0.000166086
0.000159562
0.000153037
0.000146683
0.000140574
0.000134884
0.000129699
0.000125347
0.000121941
0.000119664
0.00011807
0.000116694
0.000115163
0.000113266
0.0001107
0.000107137
0.000102412
9.65927e-05
9.007e-05
8.63894e-05
0.000363454
0.000362314
8.74364e-05
9.70011e-05
0.000640489
0.000740619
0.000739295
0.000708986
0.000671093
0.000633127
0.000597792
0.000566105
0.000538046
0.000513916
0.000493305
0.000476993
0.000464281
0.000456257
0.000450207
0.000444832
0.000432905
0.000415751
0.000395844
0.000378058
0.000363523
0.000350441
0.000336427
0.000318271
0.000296477
0.000281076
0.000311115
0.000348514
0.000328248
0.000394351
0.00102482
0.00118111
0.00122589
0.00121279
0.00117651
0.00113268
0.00108752
0.00104488
0.00100617
0.000973214
0.000946258
0.000927121
0.000914329
0.000908769
0.000904293
0.000896906
0.000872261
0.000833497
0.000786261
0.000740514
0.000701192
0.000668558
0.000636049
0.000596662
0.000551608
0.000509656
0.000482072
0.000468062
0.00045819
0.000544127
0.00122597
0.0014488
0.00154536
0.00155911
0.00154568
0.00151438
0.00147616
0.00143766
0.00140239
0.0013741
0.00135432
0.00134554
0.00134507
0.00135169
0.00135543
0.00134956
0.00131472
0.00125596
0.00118173
0.00110644
0.00103896
0.000980484
0.000924811
0.000862557
0.000793027
0.000725219
0.000666381
0.000609618
0.000563687
0.000601723
0.00126465
0.0015113
0.00166503
0.00175189
0.00178191
0.00177645
0.00175668
0.00173345
0.00171264
0.0017003
0.00169955
0.00171291
0.00173546
0.00176223
0.0017797
0.00177798
0.00173482
0.00165765
0.00155845
0.0014552
0.00136049
0.00127679
0.00119841
0.00111449
0.00102272
0.000931903
0.000850724
0.000765874
0.000680875
0.000661703
0.00117406
0.00148076
0.00169022
0.00182556
0.00189826
0.00193127
0.00194058
0.00194174
0.00194449
0.00195785
0.00198653
0.00203246
0.00208686
0.00214076
0.00217548
0.00217853
0.00212784
0.0020333
0.00191087
0.00178191
0.00166215
0.00155512
0.00145594
0.00135277
0.00124171
0.00113102
0.00103133
0.000929936
0.000814071
0.000749098
0.00104246
0.0013473
0.0015969
0.0017948
0.0019178
0.00199405
0.00203975
0.00207331
0.00210732
0.002155
0.00222401
0.00231194
0.00240613
0.00249128
0.00254475
0.00255186
0.00249383
0.00238231
0.00223827
0.002086
0.00194358
0.00181559
0.00169786
0.00157812
0.00145082
0.00132334
0.00120761
0.00109612
0.000958489
0.00085711
0.000897143
0.00116134
0.00143173
0.00167031
0.00184706
0.00197541
0.00206399
0.00213737
0.00221156
0.00229897
0.0024206
0.00255885
0.00269898
0.00281775
0.00288992
0.00289917
0.00283368
0.00270536
0.00254113
0.00236799
0.00220538
0.0020589
0.00192488
0.00179111
0.00165047
0.00150903
0.00137933
0.00125867
0.0011082
0.000978751
0.000783876
0.000969539
0.00123065
0.00149052
0.00170865
0.00188361
0.00202019
0.00214146
0.00226333
0.00240113
0.00258748
0.00277913
0.00296917
0.0031231
0.00321233
0.00322146
0.00314814
0.00300321
0.00282043
0.00262882
0.00244854
0.00228595
0.00213782
0.0019922
0.00184088
0.00168773
0.00154604
0.00141599
0.00125893
0.00110848
0.000724303
0.000823571
0.00103061
0.00128389
0.00152662
0.00174026
0.00192288
0.00209187
0.00226882
0.00246517
0.002714
0.00297791
0.00321901
0.00340895
0.00351215
0.00351929
0.00343771
0.00327675
0.00307715
0.00286955
0.00267407
0.00249774
0.00233754
0.00218203
0.00202192
0.00186045
0.00170895
0.00156948
0.00140917
0.00124342
0.000724076
0.000755401
0.000876101
0.00108502
0.00132701
0.00156477
0.00178688
0.00200271
0.00223303
0.00249604
0.00282348
0.00316166
0.00345274
0.00367556
0.00378961
0.00379292
0.00370263
0.00352674
0.00331242
0.00309127
0.00288316
0.00269533
0.00252497
0.0023613
0.00219477
0.00202736
0.00186841
0.00172072
0.00155865
0.00138179
0.000787253
0.000765034
0.000810229
0.000935779
0.0011411
0.00138029
0.00162874
0.00188665
0.00216941
0.00249805
0.00291771
0.00333442
0.0036722
0.00392305
0.00404441
0.00404223
0.00394294
0.00375405
0.0035273
0.00329524
0.00307695
0.00287986
0.0027011
0.00253075
0.00235964
0.00218829
0.00202427
0.0018705
0.00170764
0.00152264
0.000917371
0.00086347
0.000844057
0.000879578
0.00100835
0.0012144
0.00146831
0.00175689
0.00208766
0.0024887
0.00299579
0.00348827
0.00387733
0.00415046
0.00427552
0.0042667
0.00415871
0.00395937
0.00372292
0.00348265
0.00325671
0.00305211
0.00286655
0.00269085
0.00251725
0.00234372
0.00217624
0.0020185
0.00185607
0.00166509
0.00112277
0.0010472
0.000978126
0.00093726
0.000962361
0.00110023
0.00132758
0.00162908
0.00200028
0.00247815
0.00305534
0.00362592
0.00406866
0.00435591
0.00448139
0.00446545
0.00435007
0.00414318
0.00390011
0.00365471
0.00342286
0.00321277
0.00302211
0.00284294
0.0026682
0.00249411
0.0023246
0.00216438
0.00200361
0.00180837
0.00138284
0.0012918
0.00119681
0.00109533
0.00103177
0.00106049
0.00123069
0.001519
0.00192353
0.00246341
0.00310085
0.00375237
0.00423957
0.00453649
0.00465993
0.00463737
0.00451687
0.00430554
0.0040594
0.00381172
0.00357612
0.00336256
0.00316844
0.00298753
0.00281293
0.00263962
0.00246977
0.00230781
0.00214981
0.00195175
0.00168926
0.00158581
0.00146901
0.00133092
0.00119791
0.00112539
0.0011877
0.00144622
0.00186615
0.00244584
0.0031407
0.00386621
0.00438731
0.00468889
0.00480868
0.00478099
0.00465853
0.00444599
0.00420056
0.00395348
0.00371713
0.00350206
0.00330613
0.00312502
0.00295167
0.00278028
0.00261141
0.00244867
0.00229418
0.00209453
0.002033
0.00191872
0.00178362
0.00162073
0.00143673
0.00127982
0.00123045
0.00140634
0.00181986
0.00243174
0.00317675
0.00396038
0.00450738
0.00480909
0.00492463
0.00489429
0.00477378
0.00456348
0.00432314
0.00407954
0.00384523
0.00363097
0.00343512
0.0032553
0.00308419
0.00291562
0.00274889
0.00258601
0.00243607
0.00223597
0.00240066
0.00227717
0.00212667
0.00194176
0.00172348
0.00150296
0.00135587
0.00141165
0.00179417
0.00242649
0.00320704
0.00403544
0.00459186
0.00489227
0.00500404
0.0049744
0.00486029
0.0046567
0.00442531
0.004189
0.00395972
0.00374809
0.00355415
0.00337619
0.00320851
0.00304418
0.00288063
0.00271956
0.00257494
0.00237529
0.00277483
0.0026446
0.00248247
0.00228061
0.00203786
0.00176976
0.00153998
0.00148567
0.00179152
0.00242965
0.0032428
0.00407722
0.00463622
0.00493288
0.00504201
0.00501703
0.00491417
0.00472255
0.00450449
0.00427946
0.00405767
0.00385127
0.00366129
0.00348679
0.00332297
0.00316342
0.00300532
0.00284923
0.00271057
0.00251174
0.00313448
0.00300143
0.00283305
0.00262057
0.00236041
0.00205665
0.00176299
0.00161912
0.00182423
0.00244543
0.00326573
0.00407309
0.0046336
0.00492341
0.00503158
0.00501559
0.00492894
0.00475597
0.00455521
0.00434459
0.00413436
0.00393635
0.00375288
0.003584
0.00342586
0.00327259
0.00312137
0.0029736
0.00284189
0.0026441
0.00345635
0.00332563
0.00315801
0.00294257
0.00267091
0.00234173
0.00200123
0.00178245
0.00189162
0.00245759
0.0032488
0.00401438
0.00457252
0.00485295
0.00496228
0.00495987
0.00489401
0.00474638
0.0045679
0.00437595
0.00418145
0.00399565
0.003822
0.0036615
0.00351138
0.00336632
0.00322392
0.00308775
0.00296498
0.00276973
0.00371228
0.00359289
0.00343479
0.0032248
0.00294732
0.00260252
0.00222998
0.00195082
0.00196768
0.00248089
0.0031929
0.00391135
0.00443665
0.00470526
0.00481838
0.00483477
0.00479237
0.00467682
0.00452679
0.00435895
0.00418544
0.00401677
0.00385722
0.00370871
0.00356945
0.00343539
0.0033045
0.00318299
0.00307101
0.00288255
0.00388905
0.00377772
0.00363787
0.00343934
0.00316544
0.00281525
0.00242421
0.00209998
0.00203269
0.00246989
0.00309957
0.003729
0.00419955
0.00445854
0.00457909
0.00461876
0.00460167
0.0045224
0.00440635
0.00426938
0.00412305
0.00397834
0.00383938
0.00370842
0.00358483
0.00346632
0.00335213
0.00324635
0.00314617
0.00297066
0.00398521
0.00387787
0.00374448
0.00356188
0.00330202
0.00295621
0.00255875
0.0022033
0.00206307
0.00236607
0.00290305
0.00343196
0.00384278
0.00409784
0.00423009
0.00429501
0.0043032
0.00426052
0.00417998
0.00407746
0.00396379
0.00384889
0.00373752
0.00363152
0.00353071
0.00343375
0.00334063
0.00325402
0.00316884
0.00301298
0.00398731
0.0038857
0.00376003
0.00358854
0.0033433
0.00300912
0.00261768
0.00224605
0.00204151
0.00217679
0.00259928
0.00303771
0.00339966
0.00365461
0.003802
0.00388892
0.00391792
0.00390544
0.00385656
0.00378561
0.00370253
0.00361572
0.00353227
0.00345361
0.00337913
0.00330737
0.0032387
0.00317454
0.00310923
0.00297939
0.00389026
0.00380587
0.00369332
0.00353303
0.00329782
0.00298567
0.00262125
0.00226257
0.00201971
0.00201813
0.0023079
0.0026676
0.00299091
0.00324274
0.00340263
0.00349915
0.00353902
0.00354318
0.00351188
0.00345917
0.00339423
0.00332505
0.00326056
0.00320247
0.00314903
0.00309655
0.0030474
0.00300206
0.00295442
0.00285076
0.00372913
0.00366755
0.00357105
0.00342586
0.0032197
0.00295488
0.00265224
0.00235262
0.00212688
0.00205623
0.00223401
0.00251153
0.00278427
0.00301103
0.00316933
0.00326008
0.00329908
0.00330684
0.00328124
0.00323479
0.00317624
0.00311318
0.00305339
0.00299946
0.00295074
0.00290494
0.00286146
0.00281838
0.00276786
0.00267864
0.00356588
0.00353627
0.00347118
0.00336284
0.00320622
0.00301012
0.00279351
0.00258249
0.00241083
0.00233356
0.00243095
0.00262123
0.00282361
0.00299952
0.00312703
0.0031997
0.00323152
0.00323859
0.00321821
0.00318043
0.00313257
0.00308113
0.00303144
0.00298557
0.00294312
0.00290107
0.00285708
0.00280733
0.00274342
0.00264766
0.00340789
0.00339281
0.00337065
0.00331855
0.00322958
0.00311235
0.00298056
0.0028498
0.00273382
0.00267676
0.00272115
0.00283086
0.00295481
0.0030669
0.00314376
0.00319064
0.003211
0.00321571
0.00320306
0.00318021
0.00315222
0.00312378
0.00309806
0.00307585
0.00305587
0.00303385
0.00300799
0.00297216
0.00291713
0.0028341
0.00330653
0.00331104
0.00331063
0.00329111
0.00325287
0.00319349
0.00311852
0.00304222
0.00297792
0.00293675
0.00294375
0.0029852
0.00303889
0.00308979
0.00312298
0.00314481
0.0031527
0.0031531
0.003147
0.00313879
0.0031315
0.00312784
0.00312932
0.00313499
0.00314252
0.00314856
0.00315339
0.00315081
0.00313517
0.0031026
0.000199798
0.000211642
0.000211753
0.000208655
0.00020339
0.000196946
0.000189978
0.000182881
0.000175861
0.000169096
0.000162632
0.00015663
0.000151103
0.000146329
0.000142299
0.000139076
0.000136085
0.000133246
0.000130776
0.000128491
0.000125362
0.000120182
0.000112199
0.000101297
8.75794e-05
0.000374508
0.000366135
8.57431e-05
9.33704e-05
0.000103585
0.00077554
0.000935785
0.000972896
0.000952303
0.000913593
0.000872657
0.000833536
0.000797607
0.000764709
0.000734817
0.000706574
0.000680853
0.000655165
0.00063167
0.000606143
0.0005784
0.00054181
0.000508671
0.00048644
0.000476911
0.000474632
0.000469558
0.000450813
0.000408734
0.000354455
0.000365621
0.000420221
0.000323787
0.000353447
0.000454941
0.00122568
0.00150174
0.00162083
0.00164785
0.00163126
0.00159653
0.00155517
0.0015129
0.00147161
0.00143315
0.00139638
0.0013626
0.00132663
0.00129016
0.00124577
0.00119103
0.00111377
0.00103851
0.000978455
0.000938059
0.0009115
0.000886902
0.000845736
0.000762833
0.0006553
0.000589645
0.000572958
0.000493713
0.000523376
0.000675282
0.00150702
0.00188858
0.00205397
0.00213135
0.00215232
0.00214439
0.00211976
0.00208954
0.00205843
0.00203044
0.002005
0.00198251
0.00195437
0.00191858
0.00186573
0.00179156
0.00168042
0.00156733
0.00146703
0.00138988
0.00133192
0.00127968
0.00120947
0.00109212
0.000936762
0.000812619
0.000752006
0.000655672
0.000640195
0.000784262
0.00164072
0.00201502
0.00227821
0.0024371
0.00250021
0.00253276
0.00253676
0.00253067
0.00252319
0.00252054
0.00252216
0.00252628
0.00251881
0.00249238
0.00243877
0.00235094
0.00221107
0.00206242
0.00192426
0.00181109
0.00172098
0.00164096
0.0015451
0.00139946
0.00120726
0.00103419
0.000937396
0.00082863
0.000770459
0.000867551
0.0016838
0.00204595
0.00234103
0.00254959
0.00269488
0.00278363
0.00282889
0.00285704
0.00288501
0.0029212
0.00296306
0.00300591
0.00302737
0.00301867
0.00296792
0.00286938
0.00270353
0.00252047
0.00234593
0.00219858
0.00207836
0.00197261
0.00185498
0.00168807
0.00146924
0.001258
0.00112602
0.00100857
0.000920129
0.00097426
0.0016213
0.00199247
0.00232524
0.00258554
0.00277829
0.00291373
0.00301038
0.00308515
0.00316038
0.00324883
0.00334408
0.00343557
0.0034943
0.0035061
0.00345935
0.00335088
0.00315969
0.00294247
0.00273307
0.00255383
0.00240626
0.0022777
0.00214198
0.00195994
0.00172287
0.00148373
0.00132144
0.00119396
0.00108918
0.00111647
0.00151659
0.00186482
0.00221446
0.0025147
0.00275978
0.00294955
0.00309983
0.00323079
0.00336141
0.00351646
0.00367762
0.00382721
0.00392814
0.00396214
0.00391805
0.00379878
0.00358123
0.00333024
0.00308772
0.00287934
0.00270747
0.00255923
0.00240883
0.00221636
0.00196837
0.00170959
0.00152221
0.00138484
0.00127296
0.00128097
0.00137783
0.00168114
0.00203395
0.00236701
0.00265542
0.00289685
0.00310897
0.003305
0.00350625
0.0037347
0.00397336
0.00418928
0.00433531
0.00439188
0.00434653
0.00421462
0.00396946
0.00368543
0.00341235
0.00317797
0.00298495
0.00282006
0.00265804
0.00245844
0.00220525
0.0019341
0.00172726
0.00158067
0.00146591
0.00145983
0.00124403
0.00148181
0.00181064
0.00216202
0.00248987
0.00278265
0.00305247
0.00331754
0.00360067
0.00390947
0.00424112
0.00452798
0.00471877
0.00479584
0.00474722
0.00459868
0.00432528
0.00400986
0.00370941
0.00345269
0.00324174
0.00306311
0.00289185
0.00268774
0.00243358
0.00215696
0.00193526
0.00178098
0.00166525
0.00164931
0.00114006
0.00130601
0.00158423
0.00192761
0.00228202
0.00262197
0.0029519
0.0032892
0.00365349
0.0040656
0.00450072
0.00484472
0.00508141
0.0051738
0.0051193
0.00494981
0.00464982
0.00430545
0.00398176
0.00370665
0.00348098
0.00329142
0.0031123
0.00290593
0.00265415
0.00237774
0.00214575
0.00198488
0.00186936
0.00184621
0.00108918
0.00118621
0.00139792
0.00170209
0.00205842
0.00243414
0.00282202
0.00323433
0.00368516
0.0042066
0.00473699
0.00513968
0.00541812
0.0055232
0.00546054
0.00526714
0.00494334
0.00457456
0.00423244
0.00394315
0.00370576
0.0035075
0.00332177
0.00311497
0.0028681
0.00259616
0.00235863
0.0021924
0.0020773
0.00204805
0.00109905
0.00114299
0.00129254
0.00152979
0.00185651
0.0022456
0.00268143
0.00316677
0.00371038
0.00433784
0.00495271
0.00540883
0.00572362
0.00583969
0.00576776
0.00554957
0.00520633
0.00481979
0.00446468
0.00416531
0.00391923
0.00371346
0.00352237
0.0033168
0.00307678
0.00281241
0.00257383
0.00240317
0.00228815
0.0022531
0.00121528
0.00120956
0.00127753
0.00145241
0.00172101
0.00208987
0.00255292
0.0031006
0.00375008
0.00446279
0.005142
0.00565874
0.00599947
0.00611879
0.0060367
0.00579577
0.00543997
0.00504322
0.00468131
0.00437588
0.00412386
0.00391133
0.00371662
0.00351333
0.00328154
0.00302684
0.00279072
0.0026172
0.00250113
0.00245963
0.0014427
0.00140416
0.00141547
0.00148645
0.00166767
0.0020036
0.00246141
0.00306287
0.0037901
0.00456895
0.00529787
0.00588975
0.00623902
0.00635545
0.00626249
0.00600434
0.00564523
0.00524638
0.00488429
0.00457682
0.00432096
0.00410283
0.00390556
0.00370577
0.00348336
0.00323975
0.00300866
0.00283385
0.0027152
0.00266557
0.00178301
0.00172452
0.00169082
0.00168347
0.00174993
0.0019689
0.00241228
0.00304207
0.00381842
0.00464988
0.00543556
0.00608952
0.00643244
0.00654216
0.00644033
0.00617332
0.00582205
0.00542967
0.0050741
0.00476866
0.00451071
0.00428872
0.00408904
0.00389428
0.00368198
0.00345039
0.00322632
0.00305121
0.00292864
0.0028686
0.00221927
0.00214119
0.00207211
0.00200369
0.00196947
0.00205646
0.00239383
0.00301942
0.00383638
0.00471921
0.00555733
0.00622884
0.00656842
0.00667063
0.0065646
0.0063
0.00596791
0.0055914
0.00524879
0.00494933
0.004692
0.00446834
0.00426763
0.00407585
0.00387465
0.0036559
0.0034406
0.00326481
0.00313862
0.00306614
0.00271284
0.00261526
0.00251292
0.00239347
0.00227962
0.00224799
0.00244492
0.00301901
0.00385695
0.00476948
0.0056578
0.00630069
0.00663652
0.00673206
0.00662878
0.00637989
0.00607732
0.0057266
0.00540322
0.00511411
0.00486092
0.00463865
0.00443885
0.0042491
0.00405484
0.0038485
0.00364354
0.00347323
0.00334202
0.00325471
0.00321633
0.0030991
0.00296647
0.00280519
0.00263005
0.00250883
0.00257074
0.00304683
0.00387346
0.00481299
0.00566872
0.00629902
0.00662573
0.00671724
0.00662534
0.0064057
0.00614155
0.00582564
0.00552775
0.00525466
0.00501002
0.00479269
0.00459659
0.00441199
0.00422571
0.00403033
0.00383797
0.00367186
0.00353388
0.00342948
0.00368719
0.0035508
0.00339198
0.00319737
0.00297615
0.00278311
0.00274578
0.00311367
0.0038647
0.00476939
0.00558231
0.00620746
0.00652399
0.00661672
0.00654564
0.00636687
0.0061479
0.00587385
0.00560739
0.00535627
0.00512641
0.00491914
0.00473079
0.00455352
0.00437676
0.00419412
0.00401382
0.00385029
0.00370612
0.00358369
0.00409279
0.0039389
0.0037586
0.00353829
0.00328269
0.00303653
0.00292596
0.00314351
0.00382367
0.00464264
0.00543206
0.00601266
0.00631991
0.00642194
0.00638064
0.00625031
0.00608033
0.00585212
0.00562164
0.005398
0.00518909
0.00499716
0.00482149
0.00465604
0.00449186
0.00432308
0.00415499
0.00399469
0.00384698
0.00370823
0.00440947
0.00424152
0.00404514
0.0038061
0.00352543
0.00323929
0.0030567
0.00314072
0.00374927
0.00447976
0.00518021
0.00570323
0.00600698
0.00612903
0.00612434
0.00604463
0.00592364
0.00574128
0.00554873
0.00535498
0.00517037
0.00499943
0.00484233
0.00469409
0.00454687
0.00439502
0.00424112
0.00408728
0.00394037
0.00378976
0.00462061
0.00444446
0.00423853
0.00398793
0.00369058
0.00337388
0.00312676
0.00309623
0.00354948
0.0041954
0.00480857
0.00528631
0.00559509
0.00574838
0.00578321
0.00575076
0.00567437
0.00553394
0.00537686
0.00521471
0.0050569
0.00490914
0.00477333
0.00464544
0.00451832
0.00438601
0.00424842
0.00410725
0.00396692
0.00381074
0.00471729
0.0045424
0.00433529
0.00408193
0.00377769
0.00344146
0.00314333
0.00301299
0.00326706
0.00380896
0.00435462
0.00480627
0.00512762
0.00531982
0.00539236
0.00539967
0.00535856
0.00525518
0.00512943
0.00499435
0.00485978
0.00473222
0.00461488
0.00450506
0.00439657
0.00428357
0.0041643
0.00403934
0.00391016
0.0037546
0.00470345
0.00454274
0.00434713
0.00410388
0.00380725
0.00347007
0.00314674
0.00294575
0.00302173
0.00342464
0.00391398
0.00435134
0.0046856
0.00491257
0.00501865
0.0050535
0.00503561
0.00495996
0.00485795
0.0047427
0.00462451
0.00451026
0.00440435
0.00430543
0.00420871
0.00410893
0.00400363
0.00389236
0.0037738
0.0036227
0.00460764
0.00447628
0.00430858
0.00409299
0.0038244
0.00351359
0.00320405
0.00297857
0.00293699
0.00320661
0.00362029
0.00402407
0.00435421
0.00459667
0.00472452
0.00477039
0.00476341
0.00470506
0.00461952
0.00451844
0.00441212
0.00430721
0.00420827
0.00411507
0.00402408
0.00393066
0.00383215
0.00372736
0.00361275
0.00346438
0.00449371
0.00439988
0.00427566
0.00410389
0.00388268
0.0036237
0.00336393
0.00315382
0.00306735
0.00322531
0.00354358
0.00388421