/*--------------------------------*- C++ -*----------------------------------*\
| =========                 |                                                 |
| \\      /  F ield         | OpenFOAM: The Open Source CFD Toolbox           |
|  \\    /   O peration     | Version:  5.0                                   |
|   \\  /    A nd           | Web:      www.OpenFOAM.org                      |
|    \\/     M anipulation  |                                                 |
\*---------------------------------------------------------------------------*/
FoamFile
{
    version     2.0;
    format      ascii;
    class       volScalarField;
    location    "1150/air";
    object      epsilon;
}
// * * * * * * * * * * * * * * * * * * * * * * * * * * * * * * * * * * * * * //

dimensions      [0 2 -3 0 0 0 0];

internalField   nonuniform List<scalar> 
243000
(
2.02206
2.76345
3.18438
3.48423
3.66656
3.75154
3.75748
3.6983
3.58191
3.41663
3.20661
2.96443
2.70284
2.451
2.23068
2.06931
1.96188
1.88543
1.80497
1.70009
1.56624
1.41028
1.24398
0.258123
0.227656
0.198425
0.174264
0.147782
0.125246
0.497155
1.05651
1.37077
1.4991
1.55918
1.5673
1.54312
1.49649
1.43415
1.36044
1.27901
1.19202
1.10509
1.02182
0.95086
0.896368
0.865148
0.848486
0.834494
0.809765
0.770352
0.718562
0.658143
0.592782
0.525869
0.460577
0.402585
0.342504
0.27147
0.207306
0.216545
1.25962
1.66501
1.84012
1.93328
1.95701
1.93743
1.88786
1.8173
1.73169
1.63677
1.53655
1.43889
1.34846
1.27637
1.22681
1.20705
1.20089
1.18957
1.15589
1.09725
1.02002
0.931029
0.835755
0.738405
0.643526
0.555819
0.473576
0.382407
0.292558
0.24456
1.21164
1.70733
1.96873
2.11805
2.17639
2.18132
2.14688
2.08455
2.00244
1.90873
1.80958
1.71508
1.63119
1.57132
1.53929
1.54184
1.55353
1.54935
1.50869
1.43116
1.32802
1.20978
1.08401
0.95612
0.831076
0.713454
0.604604
0.495263
0.387891
0.311736
1.00782
1.56077
1.89725
2.1147
2.23481
2.28497
2.28162
2.24237
2.17776
2.09856
2.01356
1.93514
1.87058
1.83521
1.83186
1.86538
1.89997
1.90568
1.85932
1.76373
1.63533
1.48853
1.33314
1.17564
1.02138
0.875072
0.739788
0.610678
0.487683
0.390174
0.824192
1.32118
1.69171
1.97295
2.15673
2.26188
2.30415
2.30117
2.26654
2.21365
2.15422
2.10331
2.06949
2.06939
2.10492
2.17589
2.23672
2.25371
2.20249
2.08978
1.93722
1.76319
1.57984
1.39442
1.21264
1.03958
0.879105
0.728577
0.589802
0.473389
0.672168
1.08861
1.4479
1.73654
1.97369
2.13494
2.23021
2.2736
2.27925
2.26255
2.23873
2.22512
2.23189
2.2772
2.35978
2.47302
2.56202
2.59071
2.53517
2.40638
2.23092
2.03118
1.82174
1.61053
1.40335
1.20562
1.02156
0.848847
0.693763
0.560264
0.595159
0.863301
1.20884
1.50777
1.75511
1.93952
2.08297
2.17527
2.22755
2.25459
2.2745
2.30658
2.36291
2.46205
2.59823
2.75705
2.875
2.91524
2.85548
2.71169
2.51478
2.29097
2.05719
1.82241
1.59223
1.37198
1.16607
0.972067
0.799674
0.650265
0.662039
0.71504
0.981692
1.27746
1.53904
1.74427
1.90498
2.02897
2.12556
2.19976
2.26842
2.35354
2.46714
2.62766
2.82191
3.02843
3.17522
3.22637
3.1624
3.00459
2.78775
2.54157
2.28528
2.02895
1.77817
1.53753
1.31149
1.09792
0.90757
0.742839
0.808365
0.735064
0.820205
1.05693
1.32088
1.54744
1.73032
1.8743
1.99259
2.10926
2.22889
2.37335
2.54905
2.77676
3.03257
3.28763
3.46239
3.52353
3.45535
3.28443
3.04926
2.7826
2.50561
2.22953
1.96012
1.70129
1.45685
1.22513
1.01708
0.837367
0.991093
0.899996
0.804948
0.894942
1.11332
1.34816
1.55384
1.72177
1.86106
1.99758
2.16367
2.36734
2.61259
2.91224
3.23175
3.53477
3.73631
3.80614
3.73384
3.55085
3.29914
3.01387
2.71803
2.42391
2.13761
1.86248
1.60141
1.35291
1.12796
0.933401
1.19996
1.11376
0.983793
0.873572
0.961093
1.15986
1.37636
1.5684
1.73216
1.88814
2.08196
2.34471
2.66205
3.03667
3.42052
3.76992
3.99639
4.07364
3.99733
3.80354
3.53712
3.23538
2.92267
2.61228
2.31073
2.02099
1.74494
1.48116
1.23936
1.03043
1.43381
1.35427
1.22257
1.05171
0.936846
1.01992
1.20941
1.41552
1.60409
1.78359
1.99429
2.31029
2.70161
3.15204
3.59945
3.99278
4.24193
4.32528
4.24529
4.04204
3.76291
3.44699
3.1196
2.79487
2.47982
2.17705
1.88741
1.60951
1.35148
1.12844
1.69422
1.61638
1.48505
1.29968
1.071
0.980443
1.0792
1.27101
1.47772
1.6823
1.91569
2.26924
2.73333
3.25958
3.7685
4.20261
4.47194
4.56027
4.47704
4.26587
3.9761
3.64841
3.30868
2.97173
2.64502
2.3307
2.02883
1.7376
1.46423
1.22777
1.98309
1.90056
1.76438
1.57056
1.32213
1.07393
1.0214
1.15089
1.35758
1.58439
1.84406
2.22508
2.75896
3.35968
3.92702
4.39828
4.68527
4.77764
4.69181
4.4745
4.17624
3.83926
3.48971
3.14281
2.80633
2.48199
2.16926
1.8656
1.57793
1.32869
2.30256
2.20888
2.06139
1.85569
1.58963
1.26832
1.06024
1.07671
1.25194
1.49199
1.77883
2.18104
2.78002
3.45211
4.07376
4.57826
4.88052
4.97625
4.88877
4.66722
4.36282
4.01911
3.66241
3.30803
2.96367
2.63071
2.3083
1.99357
1.69259
1.43136
2.65431
2.54321
2.37831
2.15524
1.87047
1.52407
1.19577
1.06646
1.17183
1.40848
1.71957
2.14535
2.79759
3.53582
4.20688
4.74063
5.0561
5.15491
5.06696
4.84316
4.5352
4.18756
3.8265
3.46712
3.11692
2.77713
2.44634
2.12156
1.80829
1.53555
3.03974
2.90493
2.71687
2.47104
2.16383
1.79713
1.39733
1.1281
1.12818
1.33879
1.66673
2.11738
2.81177
3.6092
4.32407
4.88312
5.21016
5.31236
5.22536
5.0015
4.69328
4.34448
3.98174
3.6199
3.26605
2.92124
2.58349
2.24983
1.92517
1.64155
3.4594
3.29486
3.07822
2.80469
2.47023
2.07526
1.63386
1.25251
1.12625
1.28746
1.62186
2.09564
2.82174
3.67024
4.42271
5.00334
5.3408
5.44728
5.36328
5.14269
4.83694
4.48965
4.12784
3.76611
3.41091
3.06305
2.72
2.37881
2.04352
1.74966
3.91491
3.71413
3.46349
3.15746
2.79134
2.36555
1.89071
1.42425
1.17147
1.25793
1.58617
2.07887
2.82593
3.7177
4.50022
5.09898
5.44603
5.559
5.48056
5.26624
4.96588
4.62295
4.26478
3.90575
3.55158
3.20285
2.85642
2.50927
2.16393
1.86017
4.40795
4.16482
3.87462
3.53134
3.13001
2.68021
2.16437
1.62889
1.25955
1.25103
1.56072
2.06654
2.8219
3.74681
4.55347
5.16745
5.52417
5.64601
5.5761
5.37144
5.07985
4.74438
4.39272
4.03908
3.68854
3.3413
2.99368
2.64237
2.28736
1.97389
4.95126
4.65496
4.31756
3.93159
3.4928
3.01152
2.45102
1.85462
1.38212
1.2739
1.54736
2.05916
2.80967
3.75167
4.57865
5.20517
5.57236
5.70595
5.64842
5.45714
5.17824
4.85385
4.51194
4.16663
3.8226
3.47948
3.13336
2.78005
2.41697
2.09277
5.53631
5.20053
4.80828
4.37587
3.91474
3.37421
2.75555
2.09697
1.533
1.3237
1.54687
2.05699
2.79508
3.73184
4.56915
5.20756
5.58541
5.73398
5.6936
5.52026
5.25889
4.95009
4.6221
4.28889
3.95487
3.61898
3.27754
2.92498
2.55639
2.21966
6.13607
5.77925
5.38282
4.91857
4.37251
3.75882
3.07616
2.35429
1.70808
1.39884
1.56284
2.0627
2.78811
3.68909
4.51932
5.16237
5.55173
5.71896
5.69984
5.55147
5.31536
5.02827
4.71962
4.40386
4.08481
3.7607
3.42735
3.07872
2.70732
2.3562
6.75173
6.40875
5.98441
5.45568
4.83133
4.15472
3.41447
2.63247
1.91048
1.50388
1.60369
2.08518
2.79744
3.65432
4.43683
5.06251
5.45935
5.64679
5.65395
5.53476
5.32792
5.0714
4.79173
4.50144
4.20434
3.89922
3.57993
3.23902
2.8671
2.50352
7.29657
6.92176
6.46442
5.89756
5.26702
4.56722
3.79021
2.95766
2.16529
1.66519
1.69348
2.16145
2.86819
3.69108
4.43919
5.03798
5.42984
5.6284
5.66045
5.56638
5.38291
5.14335
4.8739
4.58964
4.30275
4.02081
3.72283
3.39656
3.02921
2.66631
7.69966
7.31185
6.87959
6.36876
5.76929
5.07487
4.28324
3.4159
2.56269
1.97401
1.92352
2.38739
3.10446
3.91553
4.64556
5.22324
5.60621
5.80633
5.8529
5.77481
5.60492
5.3743
5.10824
4.82325
4.53165
4.23946
3.93664
3.61452
3.26209
2.89426
8.46124
8.06246
7.62829
7.13896
6.57483
5.91772
5.15582
4.30078
3.42823
2.77148
2.65281
3.13111
3.88922
4.71637
5.43834
5.9907
6.34397
6.52696
6.56328
6.4764
6.29676
6.05332
5.76983
5.46331
5.14647
4.82441
4.49246
4.14424
3.76865
3.36234
10.1249
9.77069
9.41993
9.05689
8.65335
8.17473
7.59238
6.90435
6.1651
5.56319
5.43712
5.94347
6.7314
7.54684
8.21537
8.68345
8.94888
9.05764
9.0312
8.88903
8.65942
8.36516
8.02684
7.66063
7.27766
6.87234
6.44277
5.99624
5.52859
5.01575
17.5066
17.5014
17.5661
17.609
17.5923
17.4812
17.2569
16.9429
16.5858
16.2177
16.0599
16.2275
16.5981
17
17.2708
17.4553
17.5201
17.5389
17.5051
17.4502
17.3714
17.2766
17.1681
17.0505
16.9095
16.6349
16.2057
15.7463
15.3435
14.8001
3.76415
5.25898
6.21597
6.8921
7.32874
7.57251
7.6578
7.60966
7.44338
7.1784
6.82934
6.43011
6.0027
5.60091
5.24548
4.95913
4.68465
4.37326
3.99783
3.56256
3.0715
2.53788
1.99648
1.49322
1.07626
0.848932
0.169574
0.145454
0.56905
0.667896
2.74046
3.31135
3.73841
4.02503
4.18707
4.25335
4.24314
4.17137
4.05069
3.89254
3.70808
3.51263
3.31883
3.14511
3.00255
2.89142
2.77802
2.63166
2.44956
2.23194
1.97473
1.68078
1.36461
1.05312
0.768798
0.541611
0.369003
0.321655
0.423632
0.314774
2.5395
2.99116
3.32276
3.53554
3.64748
3.68517
3.66414
3.59528
3.48999
3.3589
3.21227
3.06392
2.92429
2.80728
2.71863
2.65532
2.5814
2.47091
2.32383
2.1433
1.92756
1.67007
1.38794
1.10205
0.82974
0.602589
0.447172
0.368166
0.395509
0.360061
2.38808
2.80177
3.11976
3.31264
3.41248
3.44504
3.42687
3.36815
3.27947
3.17109
3.05278
2.93787
2.83508
2.75708
2.70602
2.67529
2.6252
2.53163
2.39619
2.22451
2.01905
1.77361
1.50003
1.21669
0.940354
0.699774
0.527724
0.420736
0.389758
0.351969
2.12035
2.5594
2.89969
3.10734
3.21061
3.24902
3.24103
3.19748
3.12934
3.04676
2.95903
2.87891
2.81323
2.77393
2.75841
2.75709
2.72792
2.6476
2.51861
2.34787
2.14313
1.89941
1.62679
1.34121
1.05949
0.806668
0.615683
0.485715
0.417756
0.36868
1.64581
2.1897
2.58831
2.84059
2.97241
3.02822
3.03872
3.01688
2.97458
2.92259
2.87022
2.82933
2.80484
2.80606
2.82725
2.85485
2.84595
2.7783
2.65444
2.48231
2.27458
2.02856
1.75408
1.46503
1.17827
0.915758
0.708354
0.559117
0.467334
0.405187
1.1538
1.71785
2.15062
2.48823
2.67281
2.76522
2.80211
2.80948
2.79914
2.7831
2.7713
2.77453
2.79479
2.83961
2.89877
2.9553
2.96624
2.91154
2.79274
2.61911
2.4066
2.15637
1.87879
1.58618
1.29473
1.02471
0.803709
0.63797
0.529197
0.456612
0.813408
1.25984
1.70708
2.08727
2.32792
2.46226
2.5352
2.57556
2.6021
2.6269
2.66037
2.71156
2.7802
2.87106
2.96877
3.05419
3.08433
3.04297
2.92955
2.75481
2.5369
2.28162
2.00019
1.70418
1.40862
1.13274
0.900526
0.720848
0.598023
0.516148
0.645687
0.895317
1.30326
1.69434
1.97681
2.15568
2.25538
2.32648
2.39005
2.45802
2.54011
2.64195
2.7626
2.90054
3.0366
3.15033
3.19895
3.17094
3.0632
2.88783
2.66451
2.40381
2.11818
1.81896
1.52014
1.23983
0.998402
0.806717
0.67087
0.579866
0.612389
0.704725
0.974108
1.32977
1.63605
1.85555
1.99278
2.08628
2.17521
2.28364
2.41495
2.56936
2.74472
2.92935
3.1028
3.24378
3.30993
3.29487
3.19267
3.01702
2.78858
2.52257
2.23271
1.93054
1.6295
1.34535
1.09657
0.894751
0.746782
0.64733
0.664908
0.679886
0.778737
1.02927
1.32214
1.56735
1.74265
1.86647
1.97688
2.11315
2.29049
2.49827
2.7284
2.95903
3.16829
3.33499
3.41766
3.41454
3.31733
3.14125
2.90829
2.63734
2.34365
2.03898
1.73622
1.44941
1.19489
0.984378
0.825604
0.718726
0.772783
0.759521
0.76311
0.852698
1.06518
1.3052
1.50674
1.66377
1.79974
1.95719
2.17208
2.43359
2.71572
2.99104
3.23412
3.42479
3.52262
3.52984
3.43671
3.25978
3.02278
2.74753
2.45075
2.14444
1.84077
1.5525
1.29358
1.07553
0.907591
0.794458
0.933369
0.913236
0.880106
0.851015
0.918993
1.09402
1.29605
1.4766
1.64053
1.82248
2.06543
2.37921
2.7084
3.02665
3.30138
3.5141
3.62546
3.64086
3.55054
3.3721
3.13119
2.85285
2.55406
2.24724
1.94341
1.65474
1.39291
1.16861
0.993143
0.874826
1.14998
1.12492
1.07269
0.988953
0.921453
0.975401
1.12723
1.31235
1.49841
1.70495
1.97599
2.33655
2.70674
3.067
3.37124
3.60405
3.72688
3.74815
3.65885
3.4778
3.23306
2.953
2.65338
2.34704
2.04436
1.75618
1.49284
1.2639
1.08254
0.960008
1.39961
1.36505
1.311
1.19863
1.0601
0.971085
1.02548
1.18033
1.3762
1.60655
1.9101
2.30469
2.71462
3.11344
3.44516
3.69612
3.82806
3.85263
3.76215
3.57752
3.32855
3.04796
2.74886
2.4442
2.1439
1.85713
1.59333
1.36161
1.17592
1.05005
1.68003
1.63209
1.56775
1.44689
1.27067
1.08547
1.00693
1.09354
1.28071
1.53082
1.86129
2.28382
2.73223
3.16743
3.52516
3.79246
3.93096
3.95616
3.86186
3.67248
3.41941
3.13831
2.84132
2.53946
2.24249
1.95804
1.69479
1.46177
1.27328
1.14492
1.9915
1.92696
1.8489
1.72028
1.52196
1.27886
1.08429
1.06179
1.21553
1.47582
1.82715
2.27346
2.76052
3.23124
3.61437
3.89653
4.03903
4.06201
3.96106
3.76464
3.50806
3.22755
2.93249
2.63413
2.34119
2.05988
1.79808
1.56502
1.37483
1.24465
2.33675
2.25367
2.15872
2.01498
1.801
1.52116
1.23601
1.09062
1.1814
1.4381
1.80671
2.27267
2.80342
3.30895
3.71798
4.01411
4.15815
4.17609
4.06482
3.86096
3.60121
3.31876
3.02531
2.73108
2.44252
2.16484
1.90516
1.67221
1.48114
1.34956
2.72122
2.61888
2.50483
2.34222
2.11035
1.79842
1.44416
1.18701
1.178
1.41886
1.80077
2.29043
2.86511
3.40772
3.84499
4.15522
4.29873
4.3081
4.18681
3.97409
3.70532
3.41868
3.12507
2.83389
2.54989
2.27606
2.01837
1.78526
1.59347
1.46063
3.15362
3.03239
2.89796
2.71373
2.45978
2.11335
1.69902
1.33975
1.22382
1.42111
1.81783
2.34039
2.95591
3.54124
4.01183
4.33793
4.47929
4.4806
4.34468
4.11678
3.8345
3.53931
3.24177
2.95053
2.66883
2.39761
2.14121
1.90819
1.7149
1.5804
3.64711
3.50849
3.35361
3.1472
2.86759
2.4819
2.0056
1.54981
1.32587
1.47071
1.88
2.44257
3.09853
3.73656
4.24992
4.59612
4.73598
4.72467
4.56811
4.31808
4.01476
3.70317
3.39438
3.09686
2.81235
2.53978
2.28208
2.04823
1.85239
1.71461
4.22472
4.07058
3.89785
3.67669
3.36669
2.93476
2.38884
1.83341
1.49927
1.57849
2.00895
2.62595
3.34011
4.04947
4.62296
4.99693
5.13733
5.10834
4.92093
4.63505
4.2966
3.95372
3.61975
3.30346
3.00558
2.72362
2.4586
2.22151
2.02032
1.87502
4.92684
4.76264
4.58175
4.35017
4.01182
3.53082
2.90746
2.24146
1.78767
1.78934
2.25868
2.96837
3.79009
4.60299
5.26953
5.68642
5.83103
5.77675
5.5398
5.19139
4.79119
4.38944
4.00254
3.64127
3.30751
2.99894
2.71575
2.46411
2.24811
2.08606
5.84549
5.68222
5.51196
5.26868
4.91024
4.38851
3.68931
2.90245
2.31136
2.23297
2.7719
3.6511
4.67889
5.68945
6.51543
7.00513
7.16517
7.07041
6.74887
6.29314
5.77646
5.2522
4.75172
4.28992
3.87074
3.49231
3.15377
2.85735
2.60013
2.39995
7.20431
7.06257
6.89277
6.65824
6.3101
5.78203
5.03863
4.14586
3.41242
3.25791
3.94316
5.13569
6.54352
7.92753
9.07019
9.70655
9.88915
9.7101
9.23381
8.57425
7.82633
7.05231
6.31463
5.63764
5.0279
4.48386
4.00469
3.58869
3.22888
2.93599
9.52141
9.40532
9.27872
9.10816
8.83485
8.39015
7.71013
6.82568
6.04008
5.87934
6.85728
8.61153
10.683
12.6978
14.3468
15.2249
15.4309
15.0991
14.3257
13.2793
12.0893
10.8499
9.65933
8.55617
7.55382
6.64908
5.84763
5.14798
4.53537
4.01336
13.9986
13.9699
13.9672
13.9682
13.9437
13.8135
13.4782
12.943
12.4874
12.653
14.1756
16.778
19.7955
22.6702
24.9357
26.0935
26.3086
25.7403
24.5138
22.8517
20.943
18.9379
16.9587
15.0753
13.3249
11.7015
10.2144
8.86776
7.6377
6.5511
23.2103
23.305
23.5715
23.9704
24.4948
25.0183
25.3967
25.694
26.2482
27.4684
29.809
33.2933
37.1275
40.6442
43.22
44.5046
44.7401
43.9962
42.3878
40.1597
37.5245
34.6651
31.7248
28.8057
25.9796
23.2116
20.5229
17.9451
15.4605
13.1495
37.2727
37.5502
38.4496
39.6052
40.9236
42.0912
43.0044
43.9058
45.4401
47.909
51.2048
55.0692
58.7638
61.9181
63.825
64.6287
64.7779
64.0936
62.6262
60.5425
57.9818
55.0756
51.979
48.7913
45.5768
42.1994
38.7112
35.114
31.3815
27.6751
42.025
42.4576
43.8975
45.4172
46.4316
46.814
46.9059
47.2374
48.4331
50.9304
54.4231
57.8652
60.6046
62.6288
63.2613
62.9912
62.7311
61.9912
60.8074
59.2882
57.4991
55.5334
53.5877
51.7229
49.8875
48.037
46.1723
44.2461
42.2147
40.1997
5.74701
7.96215
9.25969
10.2377
10.8946
11.2864
11.4638
11.4626
11.3023
11.0065
10.5852
10.0783
9.50014
8.91556
8.33545
7.77855
7.15995
6.49188
5.83083
5.17319
4.43037
3.55218
2.59724
1.69823
1.01442
0.195383
0.173893
0.638087
0.695877
0.81488
3.73991
4.52407
5.06704
5.46331
5.70492
5.8209
5.83996
5.78114
5.65888
5.48514
5.27148
5.03074
4.7793
4.53058
4.29937
4.07318
3.82208
3.55549
3.32965
3.11435
2.82404
2.40687
1.88824
1.33463
0.817392
0.446496
0.293237
0.350129
0.404711
0.36909
3.4158
4.08074
4.56044
4.887
5.07226
5.14643
5.13488
5.05316
4.91735
4.74073
4.5368
4.32001
4.10692
3.91032
3.73711
3.57322
3.38673
3.19215
3.03331
2.89143
2.68738
2.35926
1.91853
1.4254
0.931976
0.563058
0.375912
0.339925
0.374108
0.383353
3.21302
3.84779
4.35069
4.69039
4.88193
4.95742
4.9449
4.86055
4.7231
4.54823
4.35159
4.14925
3.9585
3.79249
3.65309
3.52242
3.3641
3.19446
3.05614
2.93108
2.74964
2.45498
2.04939
1.57402
1.08391
0.685077
0.459647
0.361567
0.352802
0.358522
2.98877
3.60232
4.14109
4.51476
4.72678
4.81637
4.81442
4.73884
4.61112
4.44914
4.27
4.09028
3.92823
3.79661
3.68841
3.58613
3.45023
3.2999
3.17055
3.04624
2.86742
2.58399
2.19325
1.72757
1.23782
0.814195
0.552014
0.40515
0.353503
0.355701
2.69552
3.30649
3.86999
4.27401
4.5148
4.62667
4.64345
4.58759
4.48169
4.34533
4.19681
4.05153
3.92881
3.8337
3.75939
3.68569
3.5723
3.44146
3.31947
3.19087
3.00577
2.72268
2.33745
1.87681
1.38698
0.945852
0.649942
0.465143
0.379136
0.372777
2.22935
2.85691
3.47598
3.93192
4.21112
4.3562
4.40263
4.37898
4.3081
4.2109
4.10567
4.00743
3.9308
3.87897
3.84115
3.79753
3.70894
3.59935
3.4851
3.35043
3.15428
2.86507
2.47986
2.02135
1.5314
1.07831
0.75326
0.537991
0.423212
0.408169
1.72068
2.30664
2.94441
3.44938
3.79521
3.9956
4.0865
4.1082
4.08633
4.04201
3.99286
3.95208
3.92955
3.92508
3.9259
3.91407
3.85345
3.76683
3.66053
3.51891
3.30877
3.00921
2.62014
2.16202
1.67206
1.21134
0.861955
0.620874
0.481094
0.454225
1.29489
1.76097
2.36864
2.90406
3.29664
3.54819
3.70218
3.78267
3.82244
3.84386
3.86226
3.88741
3.92425
3.97108
4.01291
4.03419
4.00433
3.94164
3.8434
3.69316
3.46686
3.15405
2.75839
2.29982
1.81022
1.34455
0.975335
0.71193
0.549703
0.508766
0.994681
1.30742
1.81033
2.34035
2.77195
3.07494
3.27873
3.41653
3.52898
3.62582
3.72064
3.81785
3.9188
4.01913
4.10303
4.15951
4.16207
4.12334
4.03154
3.87087
3.62667
3.2986
2.89477
2.43527
1.94661
1.4776
1.09319
0.810053
0.627561
0.57131
0.812015
0.993233
1.34946
1.81265
2.25494
2.60055
2.85511
3.04848
3.22054
3.39948
3.57652
3.74973
3.91577
4.07247
4.19918
4.29327
4.32789
4.31193
4.22374
4.05008
3.78649
3.44163
3.02944
2.56855
2.08145
1.61095
1.21527
0.91503
0.71424
0.64227
0.730086
0.823671
1.04235
1.38435
1.78354
2.14996
2.44885
2.69622
2.92741
3.17626
3.43771
3.69094
3.92205
4.13519
4.30519
4.4387
4.50422
4.50767
4.41888
4.22916
3.94477
3.58262
3.16222
2.69982
2.2151
1.74507
1.34132
1.02668
0.809699
0.722177
0.722096
0.77376
0.897296
1.10476
1.40771
1.75331
2.07823
2.37261
2.66018
2.96899
3.31312
3.64901
3.94442
4.21174
4.42567
4.5998
4.69399
4.71113
4.61644
4.40711
4.10037
3.72158
3.29341
2.82958
2.3481
1.88029
1.47112
1.14516
0.914056
0.811294
0.788662
0.818376
0.87888
0.989754
1.17253
1.44615
1.76359
2.08952
2.42703
2.79271
3.21221
3.62171
3.98376
4.30699
4.56636
4.78152
4.90032
4.92463
4.81702
4.58413
4.25353
3.85909
3.42321
2.95873
2.48134
2.01707
1.60492
1.27044
1.02738
0.909819
0.921109
0.939044
0.971291
1.00514
1.08832
1.25792
1.52627
1.85835
2.23321
2.65474
3.13651
3.61011
4.04511
4.42738
4.73464
4.99037
5.12792
5.15123
5.02309
4.7625
4.40686
3.99705
3.55401
3.08911
2.6162
2.15624
1.74316
1.40276
1.14978
1.01789
1.12179
1.12653
1.1416
1.1357
1.1318
1.19435
1.38175
1.68774
2.08672
2.5567
3.08342
3.62261
4.13603
4.5817
4.94043
5.23544
5.38421
5.39744
5.24079
4.94793
4.56593
4.13989
3.69031
3.22423
2.7553
2.29976
1.88715
1.54316
1.28162
1.13572
1.39698
1.38097
1.37651
1.34395
1.2829
1.2435
1.32711
1.58555
1.98652
2.48904
3.05768
3.67718
4.26702
4.78236
5.1977
5.52995
5.68214
5.67506
5.4819
5.15199
4.7405
4.29579
3.83812
3.37147
2.90446
2.45225
2.04043
1.69465
1.42408
1.26385
1.75632
1.70889
1.67776
1.61717
1.51211
1.39429
1.3618
1.53927
1.92481
2.45263
3.06455
3.78127
4.45254
5.04785
5.52732
5.89466
6.04342
6.0052
5.76743
5.39423
4.94794
4.47985
4.01004
3.54013
3.07498
2.62413
2.212
1.8601
1.57931
1.40363
2.21354
2.12366
2.0553
1.95897
1.81075
1.6248
1.49052
1.55365
1.90273
2.44947
3.1431
3.94831
4.71603
5.4074
5.96238
6.36412
6.50417
6.4247
6.13315
5.70772
5.2186
4.71968
4.22914
3.74841
3.27823
2.82429
2.40824
2.04609
1.75183
1.55805
2.78689
2.6447
2.52822
2.38596
2.18794
1.9355
1.70984
1.66352
1.95539
2.5346
3.31603
4.21062
5.09844
5.9101
6.55837
6.99761
7.12646
6.99699
6.64096
6.15131
5.60669
5.06256
4.53659
4.03093
3.54361
3.0772
2.64671
2.26566
1.95071
1.73334
3.50294
3.30049
3.12665
2.9292
2.67331
2.35008
2.03185
1.88078
2.1173
2.73798
3.61503
4.63128
5.67414
6.64279
7.41338
7.90034
8.02031
7.83404
7.40051
6.83189
6.21112
5.60221
5.01703
4.45968
3.9279
3.4235
2.9583
2.54191
2.19292
1.94184
4.40415
4.13647
3.90059
3.64448
3.32639
2.92751
2.51115
2.25694
2.4279
3.11036
4.12897
5.3335
6.58401
7.7659
8.70817
9.26474
9.38635
9.14024
8.6142
7.95288
7.22729
6.49839
5.79748
5.13533
4.51185
3.92875
3.39509
2.91566
2.51041
2.20759
5.5667
5.2344
4.94034
4.63143
4.25747
3.78695
3.27205
2.91422
3.02222
3.79891
5.03834
6.53648
8.10548
9.58719
10.786
11.4499
11.6002
11.2995
10.6595
9.83307
8.91374
7.97609
7.07342
6.22581
5.43741
4.7102
4.05116
3.46514
2.966
2.57971
7.14385
6.76022
6.42789
6.09065
5.68918
5.17541
4.58488
4.13765
4.20122
5.1393
6.72242
8.67364
10.729
12.6708
14.2768
15.1096
15.2806
14.8754
14.0315
12.9297
11.6944
10.4226
9.19161
8.0363
6.96959
5.99688
5.12417
4.35429
3.69334
3.16595
9.46743
9.07022
8.74878
8.44386
8.08412
7.6061
7.025
6.56367
6.66192
7.86484
9.96493
12.5819
15.3375
17.9083
20.052
21.0869
21.267
20.7058
19.5663
18.0626
16.3583
14.5806
12.839
11.1927
9.67016
8.28448
7.04272
5.947
4.99496
4.21653
13.2666
12.9346
12.7152
12.5482
12.3622
12.0893
11.723
11.4676
11.8291
13.4508
16.2367
19.7108
23.3471
26.6619
29.3831
30.6008
30.7587
29.9888
28.4768
26.4571
24.1406
21.6839
19.2295
16.8663
14.6498
12.6039
10.7395
9.0687
7.58379
6.3347
19.9736
19.8929
19.8934
19.9957
20.1595
20.3461
20.5024
20.8331
21.8562
24.09
27.6036
31.9271
36.3958
40.3392
43.4209
44.6449
44.7069
43.6977
41.8413
39.3323
36.4268
33.3005
30.0888
26.9014
23.8231
20.8781
18.084
15.4788
13.069
10.9552
31.3445
31.4272
31.8454
32.485
33.2551
34.0202
34.8021
35.9112
37.8811
40.9069
44.9807
49.7685
54.5532
58.543
61.256
61.9199
61.6328
60.3621
58.3709
55.7349
52.7037
49.4383
46.0252
42.5227
38.9772
35.3487
31.6492
27.9648
24.3266
20.9141
44.6138
44.7707
45.713
46.882
47.9909
48.9077
49.8054
51.2396
53.9211
57.8861
62.4449
67.0944
71.1958
74.105
75.0959
74.0616
72.8417
71.054
69.0484
66.7523
64.334
61.8849
59.4802
57.0771
54.5711
51.8005
48.6747
45.1566
41.281
37.333
46.168
46.9825
48.4943
49.9982
51.0298
51.513
51.8581
52.7787
54.9801
58.6197
63.026
67.1279
70.1957
71.6974
71.0945
68.7369
66.7564
64.4888
62.334
60.2724
58.3877
56.6969
55.2726
54.0576
52.9094
51.6762
50.3147
48.7614
47.0461
45.2931
8.32219
11.1353
12.5962
13.7172
14.4839
14.9499
15.1749
15.1996
15.0393
14.7108
14.2062
13.5638
12.7847
11.9496
11.0623
10.1478
9.12932
8.21825
7.62691
7.20002
6.49819
5.28493
3.70834
2.15137
0.224082
0.187797
0.168698
0.703443
0.832758
0.958605
5.11261
5.97857
6.50896
6.93093
7.20893
7.35672
7.3983
7.34971
7.22217
7.02258
6.76005
6.44403
6.09991
5.73959
5.38801
5.01384
4.61807
4.31918
4.25438
4.28082
4.09241
3.54262
2.72282
1.78637
0.831288
0.317377
0.237508
0.370931
0.40903
0.428979
4.6726
5.30555
5.78448
6.1422
6.37072
6.48478
6.50157
6.42868
6.2776
6.05897
5.78835
5.48259
5.17035
4.86836
4.58958
4.30445
4.00561
3.80208
3.80385
3.89141
3.80456
3.40693
2.71805
1.90001
1.05163
0.450187
0.276077
0.315588
0.363023
0.414624
4.37657
4.95475
5.47749
5.88795
6.15961
6.30083
6.33079
6.25851
6.09859
5.86717
5.58695
5.2801
4.97969
4.70566
4.46125
4.21541
3.95447
3.78964
3.80773
3.89398
3.82708
3.4685
2.84877
2.07679
1.2572
0.590649
0.328749
0.301166
0.332036
0.388397
4.05446
4.59661
5.18641
5.67851
6.01638
6.20275
6.25869
6.2011
6.04656
5.817
5.53935
5.24246
4.96899
4.71937
4.5039
4.28855
4.05819
3.92885
3.95552
4.02558
3.95426
3.61156
3.01331
2.26113
1.45354
0.74978
0.39989
0.309765
0.323336
0.385246
3.68299
4.18957
4.84035
5.41334
5.82081
6.05614
6.14465
6.11309
5.97962
5.76937
5.51857
5.24706
5.00132
4.78573
4.60223
4.41829
4.22418
4.13558
4.17259
4.22291
4.12985
3.78287
3.1902
2.44578
1.64176
0.916049
0.494645
0.340023
0.333614
0.397763
3.24496
3.73035
4.42311
5.0612
5.52952
5.81622
5.94528
5.95117
5.85455
5.68323
5.47078
5.24784
5.04304
4.86842
4.72145
4.57399
4.42542
4.38495
4.43501
4.46416
4.33805
3.9722
3.37472
2.63057
1.82498
1.08427
0.606346
0.391938
0.360098
0.423888
2.71773
3.18555
3.90941
4.60305
5.12664
5.46714
5.64727
5.7036
5.66241
5.54877
5.39688
5.23236
5.08299
4.95644
4.85093
4.74703
4.65598
4.66959
4.73344
4.73868
4.5709
4.17525
3.56488
2.81633
2.00656
1.25282
0.731504
0.464005
0.403823
0.461295
2.20948
2.63238
3.33616
4.0399
4.60428
5.00882
5.25349
5.3774
5.40853
5.37144
5.29764
5.20474
5.12111
5.0486
4.98947
4.93873
4.91739
4.98735
5.06343
5.03894
4.82235
4.38839
3.75943
3.00352
2.18838
1.423
0.867606
0.554144
0.462448
0.509719
1.77126
2.11245
2.75227
3.43666
4.02393
4.46997
4.77811
4.98702
5.10399
5.16129
5.18124
5.17362
5.16196
5.14816
5.14099
5.15526
5.21249
5.33861
5.42105
5.35873
5.08681
4.60825
3.95711
3.192
2.3717
1.59675
1.01352
0.659986
0.534675
0.568354
1.41679
1.66386
2.20049
2.83201
3.42125
3.9027
4.27206
4.55126
4.76984
4.93576
5.05942
5.14464
5.21091
5.26128
5.31355
5.4043
5.54615
5.72287
5.80207
5.69174
5.35906
4.83199
4.15654
3.38142
2.55729
1.77532
1.16915
0.780076
0.620055
0.638256
1.15065
1.31324
1.72685
2.27081
2.83466
3.33913
3.76251
4.11634
4.42648
4.70969
4.9439
5.12847
5.27627
5.39648
5.51617
5.69441
5.92308
6.13859
6.20152
6.0322
5.6346
5.05773
4.35692
3.57179
2.74565
1.95964
1.33456
0.914137
0.718829
0.718942
0.970941
1.07111
1.36776
1.80168
2.30786
2.81387
3.28113
3.70692
4.10865
4.4975
4.84777
5.1259
5.36793
5.56449
5.75974
6.03547
6.34791
6.58226
6.6146
6.37599
5.91068
5.28528
4.55894
3.76443
2.93811
2.15071
1.51029
1.06187
0.832202
0.809378
0.876788
0.938059
1.14017
1.46407
1.88542
2.36337
2.85518
3.34314
3.82976
4.31264
4.78539
5.16499
5.49831
5.77821
6.05922
6.44018
6.82478
7.06375
7.03948
6.72234
6.18757
5.51741
4.76601
3.9627
3.1367
2.34947
1.69665
1.22294
0.960138
0.910398
0.865198
0.900673
1.04534
1.27409
1.59937
2.01976
2.50845
3.04033
3.60097
4.18196
4.75182
5.24617
5.6806
6.05475
6.43365
6.92361
7.35922
7.57734
7.47764
7.07598
6.4721
5.75999
4.98625
4.1719
3.34487
2.55785
1.89467
1.3976
1.10263
1.02283
0.949255
0.966868
1.05719
1.21055
1.4581
1.80008
2.25551
2.81047
3.43926
4.09505
4.75045
5.38447
5.9332
6.41693
6.90784
7.5047
7.96197
8.13336
7.94177
7.45073
6.77897
6.02574
5.23161
4.4022
3.57041
2.78187
2.10721
1.58728
1.26034
1.14761
1.14388
1.14135
1.19972
1.28713
1.42609
1.69359
2.1003
2.65511
3.32712
4.05268
4.83002
5.60243
6.28173
6.8959
7.51501
8.20938
8.65455
8.75499
8.4585
7.87405
7.13399
6.33568
5.51982
4.67977
3.83582
3.03482
2.341
1.79571
1.43502
1.28599
1.46467
1.43293
1.45441
1.48584
1.53735
1.68196
2.02537
2.56192
3.26824
4.06923
5.00651
5.92812
6.76266
7.53541
8.30119
9.07575
9.47729
9.48489
9.07499
8.39264
7.57648
6.72881
5.89455
5.03312
4.16498
3.33479
2.60739
2.02916
1.63039
1.44086
1.92971
1.85065
1.82501
1.80133
1.77564
1.81017
2.03416
2.53379
3.27223
4.22227
5.30736
6.40379
7.42984
8.39857
9.33266
10.1639
10.5005
10.3931
9.8698
9.08178
8.17861
7.30951
6.4147
5.49627
4.57256
3.69334
2.91828
2.29508
1.85309
1.61814
2.56088
2.41413
2.32962
2.24551
2.1461
2.08168
2.19881
2.65104
3.45193
4.5372
5.78916
7.09659
8.36541
9.57895
10.7085
11.5721
11.8309
11.6007
10.9746
10.0768
9.11898
8.1477
7.13486
6.10922
5.09402
4.13321
3.29109
2.61003
2.11526
1.82824
3.39019
3.16056
3.00725
2.85795
2.68328
2.52861
2.5331
2.9491
3.82553
5.06728
6.53999
8.11454
9.69784
11.2201
12.5819
13.46
13.6465
13.3097
12.6275
11.5913
10.5134
9.33374
8.1248
6.92887
5.77501
4.70279
3.76577
3.00528
2.44133
2.09096
4.47073
4.15262
3.92931
3.71721
3.4712
3.22692
3.13033
3.50633
4.47944
5.93943
7.71541
9.6451
11.6309
13.5448
15.1966
16.0912
16.2514
15.873
15.0527
13.8264
12.4716
10.9991
9.51284
8.07449
6.71947
5.48526
4.41572
3.54163
2.88121
2.44426
5.90132
5.5061
5.22854
4.97172
4.67123
4.35076
4.16998
4.51627
5.62961
7.38987
9.58134
11.9954
14.4984
16.8977
18.9399
19.8956
20.051
19.5279
18.4698
16.9847
15.2543
13.3923
11.5311
9.75714
8.11588
6.64377
5.37718
4.33697
3.53123
2.96622
7.88257
7.45142
7.1609
6.89852
6.5834
6.23038
6.00895
6.36722
7.68309
9.85226
12.6003
15.6503
18.8107
21.794
24.3105
25.2801
25.3467
24.6041
23.2564
21.4111
19.2372
16.8984
14.5641
12.3446
10.3057
8.48818
6.92298
5.62471
4.58892
3.82353
10.8327
10.4303
10.1837
9.99394
9.74705
9.45881
9.3024
9.78498
11.3872
14.0734
17.5073
21.3253
25.2523
28.8583
31.856
32.6924
32.5507
31.5139
29.8288
27.5851
24.9391
22.0764
19.2088
16.4526
13.8959
11.5987
9.58916
7.88159
6.46811
5.37118
15.4323
15.1542
15.0434
15.0309
15.0301
14.9808
15.0791
15.8896
17.8848
21.1415
25.2928
29.8978
34.5727
38.6983
42.0001
42.3932
41.8524
40.4389
38.4261
35.8569
32.8526
29.5688
26.2467
22.9787
19.8594
16.9801
14.3644
12.0425
10.0181
8.36248
22.7375
22.6134
22.7025
22.9641
23.3211
23.7748
24.4432
25.7839
28.2714
32.05
36.7615
41.943
47.0912
51.377
54.4336
53.7408
52.2333
50.1459
47.8783
45.2866
42.4771
39.4323
36.123
32.7139
29.2896
25.967
22.7266
19.6433
16.7638
14.2327
33.0955
33.0422
33.4043
33.9825
34.673
35.4908
36.6632
38.7409
41.9526
46.1342
51.1116
56.4077
61.4163
65.0829
66.7024
63.6165
60.9093
58.112
55.675
53.2543
50.9513
48.6997
46.4677
44.1537
41.6158
38.6288
35.3275
31.833
28.2534
24.7896
42.7578
43.0901
43.911
44.8268
45.6652
46.4722
47.619
49.7917
53.356
57.9399
63.0674
68.0963
72.1894
74.133
73.3074
67.8429
63.9416
60.4461
57.8386
55.6842
54.0375
52.7742
51.806
50.9277
49.882
48.4306
46.4165
43.8451
40.8488
37.6981
42.3722
43.4724
44.9312
46.2912
47.2941
48.0088
48.9345
50.8102
54.0758
58.5089
63.4916
67.9126
70.9407
71.3677
68.3568
61.5206
56.909
53.038
50.2393
48.129
46.8039
46.0653
45.8205
45.8661
45.954
45.8306
45.3784
44.5774
43.5275
42.4557
11.5635
14.9862
16.6016
17.7009
18.4624
18.9016
19.0789
19.0425
18.8007
18.3601
17.6904
16.8265
15.758
14.5879
13.3133
11.9665
10.5473
9.73877
10.0279
10.6954
10.4004
8.67788
6.03352
3.27407
0.995998
0.167435
0.173716
0.800189
0.963113
1.07654
6.82661
7.73055
8.20947
8.55589
8.80826
8.94327
8.9706
8.90165
8.74414
8.49645
8.16807
7.75958
7.30784
6.81254
6.31645
5.75431
5.21569
5.04758
5.53419
6.18497
6.22762
5.47855
4.21373
2.7258