/*--------------------------------*- C++ -*----------------------------------*\
| =========                 |                                                 |
| \\      /  F ield         | OpenFOAM: The Open Source CFD Toolbox           |
|  \\    /   O peration     | Version:  5.0                                   |
|   \\  /    A nd           | Web:      www.OpenFOAM.org                      |
|    \\/     M anipulation  |                                                 |
\*---------------------------------------------------------------------------*/
FoamFile
{
    version     2.0;
    format      ascii;
    class       volScalarField;
    location    "1150/air";
    object      k;
}
// * * * * * * * * * * * * * * * * * * * * * * * * * * * * * * * * * * * * * //

dimensions      [0 2 -2 0 0 0 0];

internalField   nonuniform List<scalar> 
243000
(
0.0520329
0.0624567
0.0669623
0.0694108
0.0701705
0.0697035
0.0683568
0.0663666
0.0638612
0.0609524
0.0576787
0.0541615
0.0505165
0.0470683
0.0440755
0.0419133
0.0405513
0.039701
0.0388769
0.0377575
0.0362175
0.0342876
0.0320815
0.0307446
0.0287631
0.0267226
0.0249331
0.0226386
0.0204181
0.0203721
0.0784641
0.093322
0.0990503
0.101669
0.10201
0.100949
0.0988962
0.0961236
0.0927964
0.0890524
0.0849643
0.0807774
0.0766606
0.0730592
0.070227
0.0685719
0.0676803
0.0669366
0.0656202
0.063488
0.0606215
0.0571827
0.0533359
0.0492931
0.0451594
0.0412803
0.0371393
0.0318182
0.0264737
0.0272257
0.088229
0.106231
0.113546
0.117333
0.118278
0.117476
0.115454
0.112552
0.108982
0.104957
0.100621
0.0963028
0.0922132
0.0888819
0.0865485
0.0856006
0.0853046
0.0847771
0.0831896
0.0803735
0.0765743
0.0720665
0.0670696
0.0617629
0.0563511
0.0510972
0.0459158
0.0398137
0.0332956
0.0295373
0.0860114
0.108039
0.118782
0.124695
0.126959
0.127136
0.125784
0.123328
0.120059
0.116275
0.112202
0.108247
0.104672
0.102075
0.100662
0.100758
0.101267
0.101102
0.0993534
0.0959475
0.0913033
0.0858174
0.0797719
0.0733714
0.0668229
0.0603491
0.0540322
0.0472965
0.0401817
0.0347266
0.0761268
0.101796
0.115906
0.124573
0.129226
0.131135
0.130993
0.129475
0.126964
0.123854
0.120471
0.117303
0.114657
0.113183
0.113023
0.114385
0.115803
0.116058
0.114203
0.110287
0.104894
0.0985391
0.0915683
0.0842116
0.076672
0.0691544
0.061818
0.0543872
0.0468075
0.0403319
0.0665578
0.091108
0.107404
0.11896
0.126211
0.130258
0.131858
0.131728
0.130388
0.128333
0.126004
0.123985
0.122626
0.122594
0.123971
0.126736
0.129102
0.129785
0.127852
0.12349
0.117433
0.110312
0.10254
0.0943579
0.0859681
0.0775734
0.0693582
0.061182
0.0531336
0.0458813
0.05808
0.0800953
0.0968296
0.109266
0.118981
0.12535
0.129029
0.130675
0.130871
0.130206
0.129262
0.128706
0.128934
0.130644
0.133764
0.13801
0.141326
0.142417
0.14042
0.135664
0.129017
0.12122
0.112752
0.103868
0.0947584
0.0856286
0.0766644
0.0677442
0.0592079
0.0513369
0.0534899
0.0686388
0.0858702
0.099459
0.110032
0.117592
0.123293
0.126882
0.12888
0.12989
0.130615
0.131803
0.133903
0.137593
0.142608
0.14837
0.152606
0.154072
0.152009
0.146905
0.139737
0.131341
0.122263
0.112783
0.103077
0.0933326
0.0837337
0.0741547
0.0650914
0.0566979
0.0573535
0.0605073
0.0747553
0.0890693
0.100815
0.109564
0.116166
0.121128
0.12491
0.127762
0.130364
0.133556
0.13778
0.143666
0.150656
0.157939
0.163046
0.164844
0.162712
0.157297
0.149669
0.140746
0.131133
0.121143
0.110946
0.100693
0.0905559
0.0804245
0.0708222
0.0619585
0.0655231
0.0614995
0.0662771
0.0785067
0.0910579
0.101163
0.108954
0.114888
0.119639
0.124219
0.128819
0.134269
0.140777
0.149019
0.158041
0.166814
0.172728
0.174813
0.172607
0.166914
0.158882
0.149502
0.139424
0.128993
0.118383
0.107715
0.0971255
0.0865207
0.0764097
0.0671081
0.0750751
0.0703892
0.0653739
0.0702424
0.0812546
0.0922851
0.101414
0.108563
0.114307
0.119779
0.126266
0.134007
0.143068
0.153795
0.164865
0.17506
0.181716
0.184037
0.181757
0.175817
0.167441
0.157667
0.147188
0.136376
0.125417
0.114409
0.103443
0.0924336
0.0818643
0.0721436
0.0853018
0.0811554
0.0747063
0.0690679
0.0736516
0.0834798
0.093537
0.102012
0.108956
0.11535
0.123039
0.133113
0.144827
0.158112
0.171202
0.182729
0.190048
0.192558
0.190206
0.184055
0.175391
0.165293
0.154477
0.143344
0.132092
0.120804
0.10953
0.0981834
0.0871668
0.0770582
0.0960692
0.0924753
0.0863693
0.0781049
0.0723668
0.0766124
0.085809
0.0952634
0.103505
0.111036
0.119541
0.131765
0.146219
0.162058
0.177101
0.18985
0.197749
0.200404
0.197987
0.191664
0.182769
0.172414
0.161331
0.149939
0.138451
0.126938
0.115407
0.103772
0.0923441
0.0818676
0.107391
0.104072
0.0983496
0.0899776
0.0790817
0.0746018
0.0795292
0.088657
0.0979807
0.106771
0.116356
0.130156
0.147316
0.165691
0.182584
0.196435
0.204828
0.207593
0.205123
0.198669
0.1896
0.179057
0.167776
0.15619
0.144525
0.132834
0.121096
0.109201
0.0974077
0.0866015
0.119289
0.115955
0.110345
0.102106
0.0910313
0.0792646
0.0766628
0.0829745
0.0925805
0.102565
0.11341
0.128417
0.148189
0.169034
0.187651
0.202476
0.211286
0.214133
0.211625
0.205086
0.1959
0.185238
0.173831
0.162119
0.150333
0.138513
0.126614
0.114494
0.102383
0.0912817
0.131793
0.128194
0.122422
0.114137
0.102951
0.0885675
0.0786011
0.0793731
0.0877013
0.0985135
0.110687
0.126674
0.148897
0.172088
0.192279
0.207953
0.217109
0.220021
0.217499
0.210924
0.201682
0.190967
0.179509
0.167741
0.155891
0.143983
0.13196
0.119665
0.10728
0.0959218
0.144909
0.140837
0.134683
0.126127
0.114762
0.100113
0.0851764
0.0788858
0.0839156
0.0947792
0.108185
0.125272
0.149483
0.174829
0.196427
0.212832
0.222279
0.225249
0.222744
0.216182
0.20695
0.196256
0.18482
0.173066
0.16121
0.149268
0.137161
0.124726
0.11211
0.100518
0.15863
0.153907
0.147193
0.13818
0.126483
0.111767
0.0945189
0.0819295
0.0818289
0.0916065
0.105928
0.12416
0.149948
0.177211
0.200041
0.217066
0.226764
0.229804
0.227353
0.220859
0.21172
0.201116
0.189773
0.178103
0.166301
0.154379
0.142232
0.129696
0.116884
0.105088
0.172925
0.1674
0.159984
0.150366
0.138171
0.123035
0.104923
0.0878807
0.0817645
0.089242
0.10399
0.123286
0.150266
0.179177
0.203055
0.220603
0.23053
0.23367
0.231327
0.224985
0.216007
0.20556
0.194376
0.182855
0.171172
0.159325
0.14719
0.134598
0.12162
0.109647
0.1878
0.181327
0.17308
0.162736
0.149912
0.13427
0.115664
0.0957711
0.0839801
0.0878765
0.102436
0.122605
0.150378
0.180693
0.205404
0.223393
0.233537
0.236843
0.234675
0.228562
0.219817
0.209597
0.198639
0.187335
0.175834
0.164125
0.15206
0.139466
0.126345
0.114212
0.203263
0.195724
0.18653
0.175352
0.161816
0.14594
0.126585
0.10476
0.0881853
0.0875705
0.101321
0.1221
0.150208
0.18161
0.207003
0.225375
0.235753
0.239296
0.237383
0.231582
0.223154
0.213238
0.202579
0.191562
0.180314
0.168811
0.156883
0.144346
0.131098
0.118815
0.219649
0.210803
0.200498
0.188375
0.174103
0.157739
0.137537
0.114242
0.093858
0.0886759
0.100737
0.121794
0.149755
0.181741
0.207745
0.226453
0.237106
0.240974
0.239416
0.234025
0.226013
0.216492
0.206215
0.195562
0.184645
0.173422
0.161714
0.149306
0.135992
0.12353
0.236637
0.226978
0.215428
0.202325
0.187863
0.17017
0.148714
0.124
0.100607
0.0910123
0.100719
0.121698
0.149254
0.181083
0.20744
0.226507
0.237461
0.241746
0.240676
0.235811
0.228338
0.21933
0.209544
0.199356
0.188868
0.178015
0.166627
0.154441
0.141161
0.128466
0.253441
0.243527
0.232275
0.218739
0.202247
0.182877
0.160044
0.133957
0.108158
0.0944706
0.101425
0.121918
0.149018
0.179687
0.205913
0.225176
0.236486
0.241306
0.240831
0.236678
0.229953
0.221618
0.212467
0.202888
0.192969
0.18262
0.171656
0.159796
0.146654
0.133673
0.270129
0.260912
0.249277
0.234392
0.216166
0.19551
0.171582
0.144322
0.116569
0.0991954
0.103213
0.122805
0.149363
0.178581
0.203417
0.222248
0.233836
0.239251
0.239518
0.236185
0.230295
0.222864
0.214608
0.205858
0.196701
0.187064
0.176701
0.165285
0.152359
0.139181
0.284472
0.274655
0.262437
0.246888
0.22898
0.208252
0.183957
0.155986
0.126739
0.106225
0.107067
0.125797
0.151895
0.179813
0.203514
0.221553
0.233008
0.238741
0.239706
0.237087
0.231878
0.224967
0.217053
0.208537
0.199747
0.19092
0.181361
0.170592
0.158042
0.145145
0.294859
0.284882
0.273553
0.25986
0.243313
0.223414
0.199587
0.171713
0.141822
0.119033
0.116627
0.134467
0.160178
0.187088
0.209818
0.226992
0.238057
0.243768
0.245124
0.242979
0.238217
0.231656
0.223958
0.215555
0.206774
0.197784
0.188244
0.177819
0.166049
0.153306
0.313997
0.30406
0.293057
0.280407
0.265464
0.24751
0.225841
0.200198
0.172163
0.149287
0.144641
0.161263
0.186301
0.211946
0.23318
0.24882
0.258593
0.263608
0.264631
0.262324
0.257473
0.250807
0.242923
0.234245
0.225097
0.2156
0.205586
0.194811
0.182841
0.169436
0.353916
0.345619
0.337309
0.328605
0.318799
0.30697
0.29226
0.274379
0.254459
0.237515
0.233634
0.247648
0.269005
0.290355
0.307336
0.318974
0.325497
0.328172
0.327564
0.324139
0.318548
0.311297
0.30285
0.293569
0.283698
0.273058
0.26155
0.249314
0.236167
0.221312
0.509835
0.50973
0.510996
0.511842
0.511533
0.509396
0.50505
0.498921
0.491884
0.484521
0.481271
0.484487
0.491779
0.499682
0.504999
0.508612
0.509891
0.510273
0.509633
0.50858
0.507058
0.50522
0.503109
0.50081
0.498044
0.492631
0.484125
0.474944
0.466824
0.455714
0.078722
0.0959073
0.104583
0.10937
0.111337
0.11132
0.10987
0.107351
0.103978
0.0999681
0.095455
0.0907289
0.0859603
0.0816285
0.0779153
0.0750482
0.0724543
0.0695959
0.066104
0.0618856
0.0568078
0.0507998
0.044052
0.0369989
0.0303322
0.0263828
0.0241857
0.022365
0.021733
0.0248007
0.129073
0.152569
0.161963
0.164575
0.163308
0.159871
0.155159
0.149708
0.143824
0.137791
0.131762
0.126104
0.120931
0.116702
0.113268
0.110486
0.106836
0.101903
0.095932
0.0894906
0.0825425
0.0747687
0.0660092
0.0564017
0.046511
0.038011
0.0330088
0.0326184
0.0363304
0.0343265
0.157171
0.18312
0.196627
0.201737
0.201817
0.199041
0.194475
0.188825
0.18256
0.17614
0.169851
0.164196
0.1593
0.155605
0.152751
0.150344
0.146186
0.139809
0.131687
0.122734
0.113261
0.102942
0.0915349
0.0789984
0.0659083
0.0539887
0.0452321
0.0404417
0.0414729
0.0431229
0.166706
0.19629
0.213918
0.221408
0.223748
0.222524
0.219117
0.21438
0.208927
0.203362
0.19809
0.193695
0.190243
0.188069
0.186577
0.185112
0.180989
0.173717
0.163936
0.15284
0.1411
0.128471
0.114744
0.0998018
0.0841285
0.0694012
0.0577721
0.0493387
0.045664
0.0448344
0.159548
0.191617
0.214075
0.227311
0.233027
0.234055
0.232461
0.229361
0.225537
0.221738
0.218472
0.216339
0.21526
0.215393
0.215852
0.215695
0.211932
0.204092
0.193011
0.180075
0.166351
0.151713
0.136026
0.119108
0.10141
0.0844668
0.0705059
0.0594187
0.0519577
0.0481186
0.135443
0.175443
0.203783
0.221861
0.231422
0.235604
0.236579
0.235796
0.234302
0.23304
0.232627
0.233618
0.235697
0.238772
0.241608
0.242955
0.239737
0.231549
0.21941
0.204893
0.189426
0.173034
0.155686
0.137148
0.117838
0.0991466
0.0832679
0.0702475
0.0600894
0.0536725
0.106866
0.148232
0.180559
0.205892
0.220578
0.228773
0.232915
0.23513
0.236613
0.238586
0.241861
0.246739
0.252631
0.259115
0.264594
0.267535
0.264965
0.256574
0.243571
0.227713
0.210696
0.192763
0.173997
0.154134
0.133521
0.113445
0.0959766
0.0814669
0.0693832
0.060946
0.083246
0.117862
0.152324
0.181921
0.202026
0.214867
0.222858
0.228581
0.233708
0.239412
0.247223
0.256617
0.266864
0.277092
0.285352
0.289892
0.28801
0.27952
0.265808
0.248822
0.230434
0.211151
0.191157
0.170204
0.148544
0.12737
0.108576
0.092796
0.0793086
0.069243
0.0693341
0.0907905
0.123399
0.154837
0.17906
0.196321
0.207959
0.217456
0.22659
0.236679
0.249759
0.263979
0.279015
0.293212
0.304267
0.310352
0.309159
0.300634
0.28635
0.268423
0.248837
0.228368
0.20731
0.185452
0.16297
0.140924
0.121036
0.104122
0.0895307
0.078105
0.0649095
0.0742447
0.0976357
0.127314
0.15398
0.175078
0.190714
0.203527
0.216429
0.231152
0.249411
0.269477
0.289575
0.307855
0.321598
0.329157
0.32862
0.320105
0.305354
0.286648
0.26603
0.244539
0.222561
0.19995
0.176832
0.154127
0.133363
0.115446
0.0999377
0.0874022
0.0676265
0.0698449
0.080494
0.102975
0.12906
0.152582
0.171924
0.188362
0.204693
0.223744
0.247749
0.273798
0.299011
0.321282
0.337567
0.346484
0.346553
0.338067
0.322937
0.303579
0.282101
0.259741
0.236988
0.213764
0.190173
0.166998
0.145563
0.12679
0.110512
0.0970854
0.0760205
0.074293
0.0766324
0.0870487
0.107426
0.130778
0.152628
0.172612
0.192506
0.215417
0.245253
0.277515
0.30765
0.333712
0.352334
0.362474
0.363072
0.354632
0.33919
0.319293
0.297109
0.274036
0.250652
0.226951
0.203037
0.179564
0.157646
0.138178
0.121281
0.107148
0.0901858
0.0865472
0.084
0.0843155
0.0938049
0.112311
0.134407
0.156923
0.180299
0.207482
0.242336
0.280656
0.315699
0.345286
0.366008
0.377226
0.378277
0.369883
0.354192
0.333853
0.311096
0.287468
0.2636
0.239564
0.215475
0.191853
0.169615
0.149623
0.132267
0.117579
0.110744
0.105781
0.0998299
0.0938274
0.091768
0.100945
0.119194
0.142459
0.16867
0.200256
0.239375
0.283563
0.323295
0.356078
0.37866
0.39082
0.392256
0.383905
0.368011
0.347319
0.32408
0.30007
0.275871
0.251648
0.22753
0.203888
0.18148
0.161128
0.143476
0.12836
0.135583
0.129417
0.122077
0.111668
0.101921
0.0988896
0.109464
0.130462
0.158515
0.193813
0.237098
0.286492
0.330495
0.366125
0.39034
0.403327
0.405095
0.396772
0.380713
0.35975
0.336112
0.311882
0.287508
0.263254
0.239239
0.215696
0.193255
0.172694
0.154896
0.139465
0.164177
0.156786
0.147897
0.135239
0.120234
0.107706
0.106562
0.122531
0.150621
0.188515
0.235548
0.289485
0.337294
0.375436
0.401098
0.414827
0.416891
0.408573
0.392375
0.371209
0.34732
0.322968
0.298586
0.27444
0.250639
0.227302
0.204948
0.184312
0.166504
0.150862
0.19609
0.187387
0.176973
0.162725
0.144107
0.124672
0.112554
0.119067
0.144909
0.184565
0.234714
0.292325
0.343643
0.384029
0.411008
0.425433
0.427777
0.419437
0.403138
0.381783
0.357803
0.333501
0.3092
0.285275
0.261781
0.238746
0.216587
0.195986
0.178286
0.162519
0.230812
0.220766
0.208804
0.192763
0.171692
0.147348
0.126149
0.120902
0.141851
0.181996
0.234508
0.295031
0.349533
0.391966
0.420205
0.435323
0.437954
0.429607
0.413182
0.391788
0.367879
0.343591
0.319449
0.295821
0.272722
0.25009
0.228222
0.207751
0.190253
0.174423
0.267782
0.25646
0.243004
0.225228
0.202091
0.173853
0.145323
0.129399
0.141544
0.180893
0.235425
0.297711
0.355061
0.39942
0.42894
0.444802
0.447757
0.439419
0.42307
0.401755
0.377746
0.353492
0.329531
0.306234
0.283578
0.261408
0.239936
0.219717
0.202465
0.186598
0.306381
0.293989
0.279221
0.259871
0.234811
0.203161
0.168652
0.143515
0.145583
0.181625
0.237373
0.300788
0.360541
0.406779
0.437694
0.454411
0.45775
0.449712
0.433392
0.412004
0.387888
0.363626
0.339799
0.316798
0.294573
0.272887
0.251855
0.23206
0.215066
0.199146
0.345983
0.332865
0.317127
0.296549
0.269686
0.234926
0.195225
0.161955
0.154307
0.185228
0.240773
0.305062
0.366696
0.414846
0.447381
0.465133
0.469012
0.461332
0.445014
0.423476
0.399154
0.374739
0.350892
0.328049
0.306141
0.284855
0.264244
0.244995
0.22831
0.2123
0.385912
0.372664
0.356557
0.335541
0.306959
0.269308
0.224908
0.184284
0.167355
0.192803
0.246744
0.312222
0.375023
0.425244
0.459788
0.478835
0.483381
0.47617
0.459796
0.43789
0.413124
0.38823
0.364019
0.340991
0.319089
0.297995
0.27768
0.259054
0.24266
0.226485
0.426555
0.413338
0.397836
0.376924
0.347256
0.307226
0.258702
0.211407
0.185738
0.204822
0.257779
0.324124
0.388666
0.441331
0.478545
0.499261
0.504634
0.497935
0.481319
0.458639
0.43299
0.407101
0.381896
0.357988
0.335454
0.314098
0.293936
0.275534
0.259088
0.242514
0.470333
0.457427
0.442703
0.422136
0.392374
0.350982
0.299393
0.246413
0.212772
0.223949
0.276367
0.344858
0.413091
0.470393
0.511438
0.534363
0.540947
0.534687
0.517427
0.493486
0.466158
0.438011
0.410548
0.384517
0.360143
0.337355
0.31621
0.297056
0.279637
0.261967
0.522284
0.510485
0.496085
0.47632
0.447573
0.406458
0.353888
0.297344
0.257176
0.259462
0.311904
0.384797
0.459489
0.52437
0.572085
0.598539
0.60639
0.599919
0.581348
0.555024
0.524414
0.491937
0.460095
0.429865
0.401553
0.375158
0.350846
0.328818
0.308674
0.28813
0.593077
0.583017
0.570448
0.552776
0.525981
0.487708
0.438061
0.382927
0.340322
0.335611
0.387577
0.466938
0.550681
0.625127
0.680662
0.711058
0.719915
0.712553
0.69099
0.660267
0.624046
0.585136
0.546721
0.509951
0.475136
0.442045
0.411245
0.382979
0.356607
0.329519
0.704075
0.697513
0.688203
0.674086
0.652908
0.622549
0.582599
0.537691
0.502148
0.496972
0.548262
0.632411
0.723254
0.804883
0.866044
0.898515
0.907591
0.898788
0.873714
0.837582
0.794549
0.748018
0.701023
0.655088
0.610861
0.567982
0.526679
0.487026
0.447919
0.408095
0.886531
0.884632
0.88144
0.874876
0.863544
0.845605
0.820737
0.793721
0.775089
0.780049
0.829344
0.910099
0.99747
1.07565
1.13254
1.16252
1.17137
1.16287
1.13781
1.10099
1.05621
1.00681
0.955362
0.903436
0.851853
0.799422
0.745976
0.691456
0.634458
0.574819
1.09823
1.09985
1.1093
1.11709
1.1202
1.11524
1.10313
1.08989
1.08595
1.10331
1.15
1.21637
1.28371
1.34247
1.37995
1.39892
1.405
1.39858
1.37976
1.35176
1.31703
1.2778
1.23624
1.19343
1.14969
1.10228
1.05124
0.99522
0.932092
0.862774
1.14854
1.15521
1.17456
1.19119
1.19739
1.19128
1.17836
1.16795
1.17005
1.19148
1.2331
1.28039
1.32207
1.35517
1.36929
1.37113
1.37001
1.36199
1.34762
1.32894
1.30721
1.28393
1.26153
1.24051
1.21976
1.19808
1.17549
1.15024
1.12074
1.08797
0.104395
0.126467
0.136418
0.142388
0.145021
0.145248
0.143772
0.141054
0.137349
0.132908
0.127823
0.122402
0.116723
0.111275
0.106102
0.101329
0.0961655
0.090609
0.0850726
0.0794283
0.0726042
0.0636537
0.0525903
0.0404063
0.0290379
0.0263529
0.0245823
0.0227888
0.0248357
0.0283085
0.165919
0.200454
0.216307
0.222216
0.222413
0.219571
0.214944
0.209199
0.202661
0.195587
0.188019
0.180301
0.17239
0.164808
0.15727
0.149533
0.140195
0.131017
0.123986
0.11873
0.11279
0.103568
0.0898838
0.0719539
0.0524384
0.0393623
0.0341984
0.032803
0.0368483
0.0399242
0.199344
0.241174
0.264871
0.276465
0.280235
0.279255
0.275304
0.269367
0.262071
0.253936
0.245207
0.236364
0.227398
0.218818
0.210204
0.200977
0.18921
0.17738
0.167837
0.160446
0.152475
0.140923
0.124095
0.101586
0.0761335
0.0561341
0.0452127
0.0399108
0.0431098
0.0495698
0.214383
0.26263
0.291235
0.308033
0.3158
0.317645
0.315415
0.310475
0.303766
0.296055
0.287764
0.279413
0.27097
0.262788
0.254336
0.244732
0.231632
0.217989
0.206283
0.196635
0.186437
0.172675
0.153378
0.12773
0.0981667
0.0726888
0.0572767
0.0474346
0.0463004
0.05166
0.215748
0.262488
0.299245
0.323164
0.334917
0.340268
0.340466
0.337376
0.332304
0.326243
0.319709
0.313163
0.306442
0.29968
0.292185
0.28287
0.269079
0.254152
0.240633
0.228828
0.216416
0.200608
0.17934
0.151479
0.119092
0.0893958
0.0700794
0.0564474
0.0508428
0.054119
0.20757
0.253408
0.293252
0.32161
0.339829
0.349629
0.353096
0.352705
0.35031
0.347095
0.343546
0.339978
0.335982
0.331412
0.325415
0.316815
0.302756
0.286924
0.271861
0.258037
0.243497
0.225774
0.202859
0.173404
0.13907
0.106269
0.083342
0.0667269
0.057541
0.0587109
0.185242
0.232461
0.276991
0.310643
0.333246
0.347097
0.354677
0.358086
0.359478
0.360336
0.360981
0.36148
0.361054
0.35927
0.355123
0.347522
0.333503
0.317046
0.300669
0.284971
0.268396
0.248868
0.22453
0.193907
0.158242
0.123226
0.0971962
0.0780791
0.0661429
0.0657654
0.157407
0.202083
0.248793
0.286951
0.315311
0.334461
0.346749
0.354932
0.361068
0.36729
0.373319
0.378884
0.382751
0.384184
0.382081
0.375654
0.361904
0.345047
0.327526
0.310102
0.291587
0.270355
0.244747
0.213256
0.176738
0.140194
0.111591
0.0903346
0.0762386
0.0743119
0.130159
0.167657
0.213866
0.255451
0.288266
0.312355
0.33053
0.344472
0.35666
0.369122
0.38164
0.393144
0.401827
0.406846
0.406865
0.401706
0.388403
0.371309
0.352808
0.333755
0.313394
0.290547
0.263791
0.231647
0.194646
0.157101
0.126447
0.103345
0.0874519
0.083958
0.108402
0.135634
0.176415
0.219173
0.255966
0.284995
0.308218
0.327998
0.347281
0.366793
0.386994
0.405054
0.41893
0.427709
0.429954
0.426077
0.413346
0.396133
0.376739
0.356153
0.334038
0.30967
0.281869
0.24924
0.212038
0.17392
0.1417
0.117014
0.0995905
0.0945668
0.0937652
0.11099
0.142478
0.182138
0.221024
0.254415
0.282844
0.308505
0.334183
0.362183
0.390865
0.415227
0.434561
0.447181
0.451686
0.449095
0.437026
0.419756
0.39952
0.377463
0.353689
0.327889
0.299139
0.266157
0.228979
0.190666
0.157317
0.131291
0.112569
0.106084
0.0869046
0.0963289
0.117632
0.149577
0.186697
0.222892
0.256125
0.287706
0.319991
0.35611
0.393134
0.424315
0.449087
0.465578
0.472349
0.471048
0.459696
0.442386
0.421311
0.397833
0.372478
0.345343
0.315741
0.282517
0.245552
0.207358
0.173279
0.14616
0.126346
0.118479
0.0868191
0.0916496
0.10495
0.126683
0.157525
0.193337
0.23
0.267058
0.306081
0.349625
0.394635
0.432804
0.462888
0.483142
0.4922
0.492207
0.4816
0.464224
0.442282
0.4174
0.390538
0.362163
0.331811
0.29845
0.261852
0.224028
0.189567
0.161613
0.140889
0.131713
0.0954094
0.0969614
0.103264
0.116839
0.138424
0.169393
0.20674
0.24799
0.293922
0.343938
0.395935
0.44103
0.476269
0.500113
0.511485
0.512847
0.502991
0.485502
0.462619
0.436327
0.408016
0.378491
0.347489
0.314095
0.277991
0.240716
0.206174
0.177641
0.156165
0.145734
0.112342
0.111906
0.114268
0.119117
0.13128
0.154694
0.188853
0.232446
0.283444
0.339299
0.397128
0.449221
0.489409
0.516767
0.530475
0.53327
0.524156
0.506448
0.482543
0.45483
0.425114
0.394513
0.362953
0.329614
0.294093
0.257486
0.223103
0.194235
0.17213
0.16047
0.137824
0.135831
0.135393
0.134747
0.137141
0.149426
0.177891
0.220769
0.275014
0.335913
0.398837
0.457566
0.502491
0.533361
0.54952
0.553839
0.54544
0.527387
0.502374
0.473216
0.442117
0.410495
0.378436
0.345204
0.310294
0.274425
0.240384
0.211393
0.188738
0.175841
0.171585
0.167572
0.164581
0.159915
0.154897
0.155825
0.173673
0.213185
0.268961
0.3339
0.401593
0.466243
0.515752
0.55024
0.569058
0.575013
0.567303
0.548774
0.52257
0.491937
0.459452
0.426819
0.394278
0.361133
0.326812
0.291694
0.258123
0.229149
0.205961
0.191776
0.212707
0.206009
0.200091
0.191719
0.180922
0.172516
0.177796
0.210038
0.265461
0.333211
0.405662
0.475515
0.529569
0.567903
0.589687
0.597424
0.590398
0.571295
0.543833
0.51168
0.477771
0.444095
0.411016
0.377839
0.343999
0.30959
0.276568
0.247618
0.223813
0.208224
0.260005
0.24999
0.240615
0.228433
0.212654
0.196738
0.190737
0.211988
0.2645
0.334513
0.411225
0.48584
0.54457
0.587133
0.612295
0.622013
0.615718
0.595999
0.567236
0.533521
0.498133
0.463335
0.429529
0.396177
0.362591
0.328679
0.296175
0.267026
0.242393
0.225192
0.312362
0.298611
0.285358
0.269144
0.248657
0.226158
0.211129
0.221751
0.267834
0.338732
0.419155
0.498061
0.561855
0.609208
0.638294
0.650256
0.644832
0.624545
0.594488
0.559194
0.522285
0.486158
0.451315
0.417373
0.383661
0.349982
0.317526
0.287734
0.261941
0.242804
0.368954
0.351338
0.334043
0.313705
0.288662
0.260302
0.237583
0.236914
0.277219
0.347352
0.431715
0.514086
0.583383
0.63629
0.670018
0.684573
0.680308
0.659623
0.628361
0.591608
0.553067
0.515453
0.479139
0.443923
0.409205
0.374783
0.341549
0.310434
0.282956
0.26142
0.429404
0.408149
0.387058
0.362913
0.333686
0.300065
0.269958
0.259412
0.293956
0.363669
0.450562
0.537303
0.612664
0.672107
0.711441
0.729033
0.726421
0.705715
0.67352
0.635752
0.595519
0.555278
0.516172
0.478307
0.441246
0.404813
0.369669
0.336304
0.3064
0.281782
0.494184
0.469985
0.44589
0.418768
0.386247
0.348296
0.311665
0.29268
0.31911
0.388947
0.479526
0.572665
0.656057
0.723211
0.769415
0.790514
0.790382
0.770358
0.737527
0.697599
0.654061
0.609599
0.566072
0.523912
0.482871
0.442794
0.404157
0.367521
0.334164
0.305449
0.565657
0.539963
0.51438
0.485853
0.451728
0.411225
0.369903
0.344026
0.360963
0.431053
0.527108
0.629011
0.722579
0.799828
0.854773
0.879943
0.881535
0.861337
0.826481
0.782852
0.734417
0.684174
0.634486
0.586171
0.539271
0.493755
0.450017
0.408564
0.370215
0.335878
0.650229
0.625473
0.600918
0.573597
0.54058
0.500592
0.458123
0.428438
0.437144
0.505626
0.608427
0.720837
0.825865
0.913751
0.977276
1.00565
1.00815
0.987257
0.949785
0.901672
0.847319
0.790013
0.732576
0.676273
0.621494
0.568385
0.517301
0.468707
0.422963
0.380751
0.76184
0.741443
0.721221
0.698313
0.669984
0.635052
0.597168
0.569451
0.574283
0.639848
0.746935
0.867638
0.982245
1.07848
1.14782
1.17703
1.1792
1.15719
1.11735
1.06515
1.00541
0.941481
0.876357
0.811604
0.747988
0.685695
0.624969
0.566394
0.509927
0.456376
0.923157
0.911615
0.898662
0.88268
0.862064
0.836656
0.809189
0.789786
0.797751
0.858783
0.963536
1.08489
1.2016
1.29849
1.36635
1.39159
1.39148
1.36825
1.32809
1.275
1.21404
1.14846
1.08046
1.01146
0.942367
0.872887
0.802902
0.732976
0.662923
0.59413
1.14739
1.14218
1.13849
1.13249
1.12207
1.10639
1.08908
1.07928
1.09443
1.15081
1.24525
1.35498
1.46064
1.54528
1.59819
1.61008
1.60304
1.57795
1.54086
1.49355
1.44061
1.38489
1.32737
1.26818
1.20721
1.14244
1.07291
0.998801
0.919464
0.836725
1.35332
1.35291
1.36026
1.36384
1.35981
1.34811
1.33416
1.32901
1.34939
1.40426
1.48689
1.57493
1.65524
1.71236
1.7353
1.72218
1.70197
1.67163
1.63766
1.60013
1.56237
1.52651
1.49293
1.46029
1.42718
1.38951
1.34508
1.29134
1.22662
1.15394
1.34221
1.3552
1.37429
1.3878
1.39046
1.38007
1.36536
1.36142
1.37933
1.42486
1.49041
1.55947
1.61342
1.64314
1.64001
1.60724
1.57604
1.53954
1.5047
1.47226
1.44424
1.42146
1.40469
1.39253
1.38244
1.37137
1.35763
1.33954
1.31624
1.28796
0.133615
0.158158
0.167488
0.173061
0.175347
0.175193
0.173335
0.170251
0.166162
0.161262
0.155519
0.149202
0.142275
0.135273
0.128145
0.121
0.113108
0.106076
0.101803
0.0990689
0.0937821
0.0830182
0.0667618
0.0474012
0.0296273
0.0248017
0.0237715
0.0244022
0.0279814
0.0315267
0.211517
0.248735
0.264156
0.270005
0.27026
0.267681
0.263465
0.258106
0.251668
0.244138
0.235264
0.225316
0.214123
0.202484
0.190176
0.177118
0.162973
0.154019
0.153259
0.156559
0.155956
0.145118
0.122593
0.0906391
0.055348
0.036048
0.0308681
0.0327254
0.0403703
0.0464947
0.2544
0.297708
0.322607
0.336114
0.341902
0.342918
0.340675
0.335866
0.328853
0.319884
0.30897
0.296554
0.28266
0.268223
0.253073
0.236699
0.218729
0.207137
0.20514
0.207918
0.206645
0.193869
0.167225
0.128056
0.0827719
0.0496873
0.0387486
0.0391175
0.0473664
0.0575016
0.275333
0.322709
0.354394
0.375802
0.388089
0.393911
0.394752
0.391597
0.385285
0.376335
0.365044
0.351904
0.337129
0.321629
0.3053
0.287185
0.266888
0.253343
0.249477
0.250464
0.247507
0.232973
0.203726
0.160359
0.108918
0.0654923
0.0476503
0.0445101
0.0509654
0.0615854
0.280016
0.325365
0.366803
0.397423
0.41617
0.427273
0.431963
0.431288
0.426774
0.419148
0.408903
0.39647
0.382183
0.366801
0.350289
0.331358
0.309627
0.29476
0.289008
0.287695
0.28254
0.266186
0.235165
0.189309
0.134003
0.0834093
0.0579541
0.0506464
0.0548263
0.0658083
0.274825
0.317499
0.362549
0.400822
0.429023
0.445821
0.454979
0.457815
0.456267
0.451332
0.443514
0.433112
0.420471
0.406096
0.3901
0.370996
0.348588
0.332857
0.325357
0.321529
0.313871
0.295601
0.263172
0.215829
0.158046
0.102591
0.0704076
0.0584521
0.0602877
0.0713789
0.261908
0.301525
0.349482
0.392837
0.42625
0.450214
0.465322
0.472695
0.475592
0.474798
0.470812
0.463676
0.453621
0.440974
0.426026
0.407278
0.384803
0.36862
0.359536
0.35312
0.342733
0.32242
0.288743
0.240498
0.181216
0.122521
0.0847183
0.0681839
0.0679435
0.0785106
0.238285
0.276356
0.327157
0.375592
0.414364
0.443362
0.463393
0.477058
0.486015
0.491077
0.492273
0.489518
0.482826
0.472473
0.458981
0.441036
0.419033
0.402746
0.39219
0.383157
0.369871
0.347395
0.312514
0.263718
0.203784
0.142962
0.10056
0.0798926
0.0775692
0.0870519
0.20977
0.245244
0.296777
0.348039
0.391482
0.426477
0.452835
0.473046
0.488806
0.501401
0.509138
0.511785
0.50904
0.501418
0.489684
0.472947
0.451889
0.435736
0.423764
0.412055
0.395752
0.371005
0.334919
0.285766
0.22562
0.16351
0.117643
0.0933789
0.0888431
0.0971647
0.181742
0.212034
0.261518
0.313999
0.361235
0.401089
0.433852
0.462008
0.485332
0.507166
0.522352
0.531361
0.533106
0.528502
0.518756
0.5036
0.483875
0.46798
0.454555
0.440073
0.420671
0.393586
0.356281
0.306896
0.246843
0.184249
0.135787
0.108415
0.10154
0.108707
0.156698
0.180347
0.224785
0.27628
0.326112
0.370673
0.409925
0.445288
0.478109
0.509744
0.532779
0.548887
0.555739
0.554352
0.546769
0.533533
0.515442
0.499766
0.48478
0.46739
0.444852
0.415393
0.376869
0.32732
0.267683
0.205259
0.154913
0.124816
0.115506
0.12145
0.136509
0.153474
0.190645
0.238461
0.289063
0.337659
0.383149
0.426191
0.468374
0.509265
0.541325
0.565022
0.577429
0.579564
0.574287
0.563275
0.54697
0.531348
0.514609
0.494183
0.468487
0.436662
0.396947
0.347291
0.288354
0.226565
0.174984
0.142463
0.130641
0.135212
0.122549
0.133962
0.163249
0.204992
0.253802
0.30493
0.356029
0.406771
0.458322
0.5079
0.549075
0.580315
0.598639
0.604678
0.601893
0.593374
0.578857
0.562912
0.544243
0.520648
0.491796
0.457643
0.416799
0.367125
0.309066
0.248251
0.195979
0.161276
0.146858
0.149895
0.11635
0.123925
0.146059
0.180544
0.224662
0.275826
0.330966
0.389333
0.448884
0.506212
0.556742
0.595402
0.619874
0.630175
0.630232
0.624413
0.611553
0.595283
0.574001
0.547069
0.515072
0.478651
0.436748
0.387168
0.330089
0.27044
0.217886
0.181187
0.164086
0.165419
0.11909
0.122794
0.139329
0.167178
0.205502
0.253729
0.31076
0.374183
0.440707
0.505188
0.564881
0.610903
0.641597
0.656556
0.660083
0.657043
0.645569
0.628388
0.604237
0.573853
0.538736
0.500115
0.457207
0.407772
0.351843
0.293385
0.240728
0.202153
0.182316
0.18163
0.133424
0.134888
0.145755
0.164507
0.195986
0.23907
0.295186
0.361877
0.43427
0.505262
0.573805
0.627367
0.664356
0.684534
0.692238
0.692004
0.681516
0.662798
0.635522
0.60161
0.563408
0.522645
0.478728
0.429412
0.374448
0.317184
0.264524
0.224142
0.201624
0.198353
0.160235
0.159448
0.166073
0.17729
0.19601
0.232285
0.284995
0.352973
0.429968
0.507617
0.583927
0.645335
0.688932
0.715006
0.727626
0.730157
0.720149
0.699287
0.668702
0.631245
0.589986
0.547066
0.502205
0.452877
0.398608
0.34212
0.289341
0.247141
0.221879
0.215623
0.198955
0.195362
0.197351
0.20169
0.210678
0.233601
0.28051
0.347759
0.427979
0.512365
0.596163
0.66557
0.716365
0.749096
0.767375
0.77254
0.762436
0.738966
0.705054
0.664077
0.619713
0.574708
0.529218
0.479572
0.425155
0.368597
0.315306
0.271216
0.243055
0.233416
0.247994
0.240362
0.237266
0.235192
0.235286
0.247064
0.282225
0.346241
0.428779
0.520197