/*--------------------------------*- C++ -*----------------------------------*\
| =========                 |                                                 |
| \\      /  F ield         | OpenFOAM: The Open Source CFD Toolbox           |
|  \\    /   O peration     | Version:  5.0                                   |
|   \\  /    A nd           | Web:      www.OpenFOAM.org                      |
|    \\/     M anipulation  |                                                 |
\*---------------------------------------------------------------------------*/
FoamFile
{
    version     2.0;
    format      ascii;
    class       volScalarField;
    location    "1150/air";
    object      nut;
}
// * * * * * * * * * * * * * * * * * * * * * * * * * * * * * * * * * * * * * //

dimensions      [0 2 -1 0 0 0 0];

internalField   nonuniform List<scalar> 
243000
(
0.000120505
0.000127042
0.00012673
0.000124449
0.000120863
0.000116558
0.00011192
0.000107186
0.000102471
9.78648e-05
9.33741e-05
8.906e-05
8.49747e-05
8.13497e-05
7.83792e-05
7.64047e-05
7.54361e-05
7.52377e-05
7.53625e-05
7.54702e-05
7.53739e-05
7.5026e-05
7.44627e-05
0.000329574
0.000327066
0.000323894
0.00032106
0.000312118
0.00029958
7.51318e-05
0.000524459
0.000571802
0.00058901
0.000596648
0.000597553
0.00059435
0.000588203
0.00057984
0.000569673
0.000558032
0.000545045
0.000531405
0.000517622
0.000505214
0.000495182
0.000489153
0.000485873
0.000483222
0.000478584
0.000470909
0.00046029
0.000447149
0.000431904
0.000415851
0.000398507
0.000380952
0.000362446
0.000335639
0.00030427
0.000308072
0.000556193
0.000609998
0.000630579
0.000640898
0.000643367
0.00064109
0.000635469
0.000627366
0.000617284
0.000605729
0.000593029
0.000580087
0.000567533
0.000557047
0.00054952
0.00054635
0.00054536
0.000543761
0.000538847
0.000529861
0.000517368
0.000502049
0.000484412
0.000464946
0.000444101
0.00042277
0.000400661
0.000373063
0.000341039
0.00032107
0.000549515
0.000615296
0.000644997
0.000660697
0.000666545
0.000666904
0.00066326
0.000656677
0.000647849
0.000637485
0.000626131
0.000614883
0.000604499
0.000596779
0.000592455
0.000592602
0.000594104
0.000593763
0.000588855
0.000578926
0.000564953
0.000547882
0.000528333
0.000506739
0.000483563
0.000459429
0.000434586
0.000406504
0.000374619
0.00034816
0.000517527
0.00059754
0.000637274
0.00066045
0.000672516
0.000677329
0.000676858
0.000672829
0.000666183
0.000657871
0.000648695
0.000639953
0.000632512
0.000628232
0.000627604
0.000631273
0.000635233
0.000636125
0.00063131
0.000620671
0.000605535
0.000587085
0.000566054
0.00054289
0.000517999
0.000491856
0.000464907
0.000435937
0.00040433
0.000375216
0.000483741
0.000565449
0.000613699
0.000645552
0.000664723
0.000675122
0.000679119
0.000678656
0.000675075
0.000669595
0.000663318
0.00065778
0.000653944
0.000653639
0.000657127
0.000664357
0.00067065
0.000672662
0.000667954
0.000656755
0.000640685
0.000621143
0.000598986
0.000574654
0.000548509
0.000520968
0.00049249
0.000462396
0.000430799
0.000400217
0.000451667
0.000530376
0.000582802
0.000618772
0.000645534
0.000662376
0.000671843
0.000675949
0.000676295
0.000674387
0.000671712
0.000670018
0.000670353
0.000674556
0.000682419
0.000693165
0.000701623
0.000704608
0.000699995
0.000688345
0.000671515
0.000651091
0.000628066
0.000602884
0.000575853
0.000547355
0.000517803
0.000486584
0.000454769
0.000423359
0.000432667
0.000491156
0.000548983
0.000590467
0.000620837
0.000641655
0.000656801
0.000666083
0.000671095
0.000673479
0.000675063
0.000677833
0.000682928
0.000692053
0.000704449
0.000718607
0.000729032
0.000732848
0.000728285
0.000716271
0.000698822
0.000677684
0.000653966
0.000628175
0.000600561
0.00057143
0.00054115
0.000509124
0.000476845
0.000444924
0.000447177
0.000460816
0.000512332
0.000558923
0.000594348
0.000619391
0.000637545
0.000650815
0.000660638
0.000667839
0.000674271
0.000682105
0.0006925
0.00070694
0.00072389
0.000741321
0.00075351
0.000758013
0.000753464
0.000741142
0.000723191
0.000701478
0.000677216
0.000650981
0.000623012
0.000593497
0.000562744
0.000530211
0.000497394
0.000465103
0.000477995
0.000463085
0.000482001
0.000524818
0.000564955
0.000595214
0.000617444
0.000633803
0.0006465
0.000658396
0.000670063
0.000683651
0.000699725
0.00071976
0.00074126
0.000761775
0.000775516
0.000780574
0.000776013
0.000763426
0.000745072
0.000722915
0.000698233
0.000671673
0.000643487
0.000613791
0.000582764
0.000549921
0.000516636
0.000484034
0.000511824
0.000495467
0.000477841
0.000496188
0.000533726
0.000568545
0.000595706
0.000616075
0.000631864
0.000646398
0.000663168
0.000682711
0.000705111
0.000730969
0.00075694
0.000780291
0.000795399
0.000800877
0.000796289
0.000783483
0.000764829
0.000742337
0.000717348
0.000690561
0.000662259
0.000632512
0.000601376
0.000568372
0.000534733
0.000501845
0.000545747
0.000532213
0.000510568
0.000491469
0.000507974
0.000540753
0.000572106
0.000597152
0.000616816
0.000634227
0.000654414
0.000680132
0.000709134
0.000740923
0.000771205
0.000797123
0.000813393
0.000819183
0.000814557
0.000801588
0.000782724
0.000760018
0.000734834
0.000707919
0.000679589
0.000649892
0.000618768
0.000585755
0.000551755
0.000518634
0.00057932
0.000568316
0.000549148
0.00052204
0.000503099
0.000517934
0.000547945
0.000577005
0.000601084
0.000622117
0.000644895
0.000676362
0.000712241
0.000749883
0.000784241
0.000812438
0.000829673
0.000835678
0.000831018
0.000817944
0.000798961
0.000776157
0.000750896
0.000723955
0.000695691
0.000666126
0.000635102
0.000602151
0.000567874
0.000534549
0.000612638
0.000603062
0.000586203
0.000560628
0.000525537
0.00051088
0.000527467
0.000556572
0.000584698
0.000609888
0.000636052
0.00067188
0.000714576
0.000758014
0.00079616
0.000826344
0.000844357
0.000850506
0.000845824
0.000832708
0.000813692
0.000790901
0.000765681
0.000738825
0.000710719
0.000681359
0.000650515
0.000617655
0.000583203
0.000549763
0.000645806
0.000636702
0.000621094
0.000597435
0.000564091
0.000526531
0.000517864
0.000538392
0.00056822
0.000597559
0.00062772
0.000667022
0.000716359
0.000765402
0.000807009
0.000838895
0.000857528
0.000863765
0.000859084
0.000845999
0.000827039
0.000804367
0.000779305
0.000752646
0.000724792
0.000695706
0.000665108
0.000632398
0.000597876
0.0005644
0.00067892
0.000669582
0.000654338
0.000631812
0.000600077
0.000556624
0.00052444
0.000526612
0.000552932
0.000585422
0.000619868
0.00066215
0.000717742
0.000772076
0.000816786
0.000850108
0.000869228
0.000875523
0.00087088
0.000857901
0.000839093
0.000816641
0.000791857
0.000765516
0.000737997
0.000709243
0.000678942
0.000646465
0.000611966
0.000578532
0.000711998
0.000701932
0.000686439
0.000664301
0.000633709
0.000591858
0.000546052
0.000525165
0.000540834
0.000574009
0.000612577
0.000658343
0.000718852
0.000778
0.000825442
0.000859964
0.000879475
0.000885822
0.000881269
0.000868469
0.000849916
0.000827799
0.000803411
0.000777498
0.00075041
0.000722073
0.000692129
0.000659934
0.000625546
0.000592193
0.000745034
0.000733872
0.000717709
0.000695424
0.000665404
0.000625587
0.000575415
0.000535521
0.000534166
0.000564133
0.000605896
0.000655249
0.000719692
0.000783094
0.000832895
0.000868414
0.000888258
0.000894686
0.000890285
0.00087775
0.000859588
0.000837915
0.000814031
0.000788655
0.000762094
0.000734259
0.00070474
0.000672892
0.00063868
0.000605467
0.000777959
0.00076545
0.000748331
0.000725535
0.00069557
0.000656494
0.000606415
0.000554945
0.000534241
0.000556733
0.000600085
0.000652755
0.000720192
0.000787254
0.000839041
0.000875396
0.000895549
0.000902126
0.000897973
0.000885845
0.000868176
0.000847047
0.000823765
0.00079903
0.000773099
0.000745858
0.000716848
0.000685426
0.000651441
0.000618423
0.000810798
0.000796727
0.000778435
0.00075487
0.000724606
0.000685908
0.000636822
0.000579596
0.000541833
0.000552498
0.000595381
0.000650776
0.000720197
0.000790411
0.000843774
0.000880843
0.000901309
0.000908172
0.000904385
0.000892788
0.000875725
0.000855248
0.000832672
0.000808682
0.000783482
0.00075693
0.000728538
0.000697641
0.000663922
0.000631119
0.000843574
0.000827817
0.000808183
0.000783658
0.000752904
0.000715194
0.000666314
0.000606378
0.000555672
0.000551683
0.000591994
0.000649281
0.000719595
0.000792247
0.000846941
0.000884659
0.000905502
0.000912795
0.000909515
0.000898593
0.000882271
0.000862568
0.000840811
0.000817675
0.000793322
0.000767584
0.000739927
0.000709669
0.000676237
0.000643664
0.00087697
0.000859171
0.000837961
0.000812305
0.00078105
0.000743591
0.000694602
0.000633342
0.000573639
0.000555544
0.000590239
0.000648341
0.000718375
0.000792361
0.000848335
0.000886675
0.000908009
0.000915911
0.000913321
0.000903238
0.000887821
0.000869044
0.000848243
0.000826086
0.000802715
0.000777921
0.000751154
0.000721684
0.00068865
0.000656248
0.000910308
0.000891582
0.000868677
0.000841933
0.000811378
0.000772394
0.00072233
0.000659922
0.000594227
0.000563186
0.000590213
0.000648009
0.000717301
0.000790814
0.000847601
0.000886689
0.000908601
0.000917289
0.000915632
0.000906589
0.000892289
0.000874635
0.000854979
0.000833979
0.000811762
0.00078808
0.000762408
0.00073391
0.000701531
0.00066916
0.000942118
0.000923558
0.000902066
0.000875496
0.000841932
0.00080077
0.000749401
0.000685984
0.000616387
0.000574206
0.000592404
0.000648548
0.000716815
0.000787696
0.000844378
0.000883968
0.000906619
0.000916346
0.000915811
0.000908135
0.000895336
0.000879091
0.00086083
0.000841245
0.000820442
0.000798127
0.000773752
0.000746455
0.000714971
0.000682526
0.000972678
0.000956002
0.000934516
0.000906317
0.000870467
0.000828017
0.000776
0.000712106
0.000640122
0.000588858
0.000597845
0.000650925
0.000717743
0.00078543
0.000839355
0.000878117
0.000901417
0.000912322
0.000913198
0.00090709
0.000895889
0.000881446
0.000865047
0.000847282
0.000828239
0.000807688
0.000784958
0.000759093
0.00072868
0.00069639
0.000998164
0.00098085
0.000958878
0.000930189
0.000895924
0.000854611
0.000803546
0.000740395
0.000667648
0.000609858
0.000609216
0.000658928
0.00072397
0.00078837
0.000839703
0.000876883
0.000899905
0.000911404
0.000913587
0.000908836
0.00089897
0.000885594
0.000869959
0.00085277
0.000834556
0.000815887
0.000795163
0.000771119
0.00074209
0.000711111
0.00101625
0.00099895
0.000978957
0.000954258
0.000923531
0.000885192
0.000837017
0.000776863
0.000706375
0.000645995
0.000636426
0.000681629
0.000743814
0.000804529
0.000852881
0.000887817
0.00090978
0.000921069
0.000923936
0.000920117
0.000911214
0.000898685
0.000883697
0.000867003
0.000849141
0.000830451
0.000810136
0.000787318
0.00076071
0.00073084
0.00104872
0.00103204
0.00101326
0.000991257
0.000964646
0.000931696
0.000890326
0.000838716
0.000778131
0.000723727
0.000709772
0.000747507
0.000803175
0.000857206
0.000899824
0.000930115
0.000948673
0.000958185
0.00096029
0.000956281
0.000947521
0.000935254
0.000920485
0.000903917
0.000886075
0.000867153
0.000846734
0.000824183
0.000798372
0.00076844
0.0011134
0.0011003
0.00108705
0.00107303
0.00105704
0.00103744
0.00101252
0.000981347
0.000945232
0.000912645
0.000903535
0.000928696
0.000967515
0.0010054
0.00103477
0.00105453
0.00106554
0.00107011
0.00106928
0.00106378
0.00105464
0.0010426
0.00102838
0.0010125
0.000995319
0.000976442
0.000955609
0.000932947
0.000907963
0.000878852
0.00133629
0.00133614
0.00133784
0.001339
0.00133865
0.00133593
0.0013303
0.00132227
0.0013129
0.0013028
0.00129801
0.00130183
0.00131136
0.00132185
0.00132895
0.0013338
0.00133555
0.00133612
0.00133534
0.00133401
0.00133206
0.00132967
0.00132691
0.00132389
0.00132022
0.00131301
0.00130164
0.00128929
0.00127827
0.00126288
0.000148173
0.000157414
0.000158364
0.000156202
0.000152227
0.000147282
0.000141871
0.000136298
0.000130724
0.000125296
0.000120077
0.000115217
0.000110788
0.00010707
0.000104161
0.000102216
0.000100854
9.96793e-05
9.83724e-05
9.67519e-05
9.456e-05
9.15156e-05
8.74797e-05
8.25082e-05
7.69365e-05
7.37925e-05
0.000310457
0.000309496
7.47021e-05
8.28822e-05
0.00054713
0.000632656
0.000631519
0.000605624
0.000573253
0.00054082
0.000510635
0.000483567
0.000459597
0.000438984
0.000421377
0.000407442
0.000396583
0.000389728
0.00038456
0.00037997
0.000369782
0.000355131
0.000338127
0.000322936
0.00031052
0.000299344
0.000287372
0.000271863
0.000253246
0.00024009
0.000265749
0.000297699
0.000280411
0.000336901
0.000875467
0.00100896
0.0010472
0.001036
0.001005
0.000967542
0.000928962
0.000892538
0.000859467
0.000831312
0.000808284
0.000791934
0.000781005
0.000776254
0.000772431
0.000766122
0.000745072
0.000711963
0.000671617
0.000632542
0.000598953
0.000571076
0.000543305
0.000509658
0.000471173
0.000435338
0.000411777
0.000399813
0.000391395
0.000464818
0.00104737
0.00123768
0.00132013
0.00133185
0.00132036
0.0012936
0.00126095
0.00122806
0.00119792
0.00117375
0.00115684
0.00114934
0.00114894
0.00115459
0.00115778
0.00115276
0.00112301
0.00107282
0.00100942
0.000945109
0.000887465
0.000837517
0.00078996
0.000736781
0.000677388
0.000619467
0.000569209
0.000520725
0.0004815
0.000513996
0.00108049
0.00129114
0.00142241
0.00149656
0.00152218
0.00151749
0.00150058
0.00148072
0.00146294
0.00145239
0.00145173
0.00146314
0.00148239
0.00150525
0.00152018
0.00151871
0.00148185
0.00141594
0.00133121
0.00124301
0.00116211
0.00109061
0.00102366
0.000951977
0.000873583
0.000796011
0.000726669
0.000654194
0.000581594
0.000565221
0.00100318
0.00126512
0.00144398
0.00155954
0.0016216
0.00164976
0.00165769
0.00165866
0.00166099
0.00167238
0.00169687
0.00173609
0.00178255
0.00182858
0.00185824
0.00186084
0.00181755
0.0017368
0.00163223
0.00152208
0.00141978
0.00132836
0.00124364
0.0011555
0.00106064
0.00096609
0.000880942
0.00079433
0.000695363
0.000639867
0.000890828
0.00115117
0.00136432
0.00153331
0.00163832
0.00170342
0.00174242
0.00177106
0.00180009
0.0018408
0.00189973
0.00197482
0.00205525
0.00212799
0.00217365
0.00217973
0.00213017
0.00203492
0.00191188
0.00178182
0.00166017
0.00155084
0.00145028
0.001348
0.00123925
0.00113036
0.00103151
0.000936277
0.000818718
0.000732124
0.000766763
0.000992376
0.00122328
0.00142702
0.00157794
0.00168753
0.00176315
0.0018258
0.00188914
0.00196378
0.00206765
0.00218572
0.0023054
0.00240684
0.00246848
0.00247639
0.00242045
0.00231085
0.00217058
0.00202269
0.0018838
0.00175868
0.00164419
0.00152992
0.00140979
0.00128898
0.00117819
0.00107512
0.000946597
0.000836025
0.00067006
0.000828604
0.00105157
0.00127348
0.00145975
0.00160914
0.00172576
0.0018293
0.00193338
0.00205105
0.0022102
0.00237387
0.00253618
0.00266765
0.00274387
0.00275167
0.00268905
0.00256526
0.00240914
0.00224548
0.00209149
0.00195261
0.00182608
0.00170169
0.00157243
0.00144161
0.00132059
0.0012095
0.00107534
0.000946832
0.0006192
0.000703969
0.00088075
0.00109703
0.00130429
0.00148673
0.00164266
0.00178697
0.00193807
0.00210576
0.00231827
0.00254366
0.00274958
0.00291181
0.00299995
0.00300606
0.00293638
0.00279891
0.00262842
0.0024511
0.00228413
0.00213351
0.00199667
0.00186383
0.00172707
0.00158915
0.00145974
0.0013406
0.00120367
0.00106209
0.000619034
0.000645767
0.000748822
0.000927212
0.00113384
0.00133686
0.00152652
0.00171083
0.00190752
0.00213214
0.00241179
0.00270062
0.00294923
0.00313953
0.00323695
0.00323978
0.00316266
0.00301243
0.00282937
0.00264048
0.00246272
0.00230228
0.00215676
0.00201696
0.00187471
0.00173171
0.00159593
0.00146978
0.00133135
0.00118028
0.000673049
0.000654032
0.000692597
0.000799782
0.000975087
0.00117933
0.00139148
0.00161172
0.00185319
0.00213386
0.00249228
0.00284819
0.00313668
0.00335093
0.00345458
0.00345273
0.00336792
0.00320658
0.00301292
0.0028147
0.00262825
0.0024599
0.0023072
0.00216169
0.00201553
0.00186917
0.00172906
0.00159772
0.00145861
0.00130059
0.00078427
0.000738186
0.000721549
0.00075183
0.000861751
0.00103767
0.00125448
0.00150091
0.00178339
0.00212589
0.00255899
0.0029796
0.00331189
0.00354517
0.00365198
0.00364445
0.00355222
0.00338196
0.00318
0.00297477
0.00278178
0.00260702
0.00244852
0.00229845
0.00215016
0.00200193
0.00185887
0.00172413
0.00158539
0.00142227
0.000959823
0.000895229
0.000836161
0.000801173
0.000822531
0.000940215
0.00113432
0.00139178
0.00170877
0.0021169
0.00260986
0.00309718
0.00347532
0.00372065
0.00382782
0.00381421
0.00371566
0.00353895
0.00333134
0.00312173
0.0029237
0.00274425
0.00258139
0.00242835
0.00227909
0.00213038
0.00198559
0.00184874
0.00171141
0.00154465
0.00118208
0.00110427
0.00102307
0.000936301
0.0008819
0.00090633
0.00105161
0.00129779
0.00164325
0.00210433
0.00264875
0.0032052
0.0036213
0.00387489
0.00398032
0.00396105
0.00385813
0.00367763
0.00346739
0.00325584
0.00305461
0.00287219
0.00270638
0.00255185
0.00240271
0.00225467
0.00210959
0.00197125
0.00183629
0.00166711
0.00144395
0.00135554
0.0012557
0.00113765
0.00102392
0.000961847
0.00101495
0.00123567
0.00159428
0.00208935
0.0026828
0.00330244
0.00374749
0.00400506
0.00410737
0.00408372
0.00397913
0.00379759
0.00358796
0.00337692
0.00317504
0.00299134
0.00282399
0.00266929
0.00252121
0.00237481
0.00223057
0.00209156
0.0019596
0.00178907
0.00173769
0.00164002
0.00152455
0.00138532
0.00122804
0.00109385
0.00105154
0.00120166
0.00155478
0.00207734
0.00271361
0.00338288
0.00385005
0.00410772
0.0042064
0.00418049
0.00407756
0.00389794
0.00369266
0.00348459
0.00328446
0.00310144
0.00293416
0.00278056
0.00263441
0.00249041
0.00234799
0.00220887
0.0020808
0.00190988
0.00205186
0.00194633
0.0018177
0.00165967
0.00147309
0.00128457
0.00115875
0.00120625
0.00153288
0.00207288
0.0027395
0.003447
0.00392221
0.00417878
0.00427423
0.00424891
0.00415145
0.00397755
0.00377992
0.00357807
0.00338224
0.00320148
0.00303582
0.00288382
0.00274059
0.00260022
0.00246052
0.00232294
0.00219941
0.00202888
0.0023716
0.0022603
0.00212174
0.00194922
0.00174174
0.00151258
0.00131612
0.00126955
0.00153066
0.00207561
0.00277007
0.0034827
0.0039601
0.00421346
0.00430666
0.00428532
0.00419746
0.0040338
0.00384754
0.00365533
0.0034659
0.0032896
0.00312733
0.00297828
0.00283835
0.00270207
0.00256702
0.0024337
0.00231526
0.00214543
0.00267891
0.0025652
0.0024213
0.00223971
0.00201736
0.00175773
0.0015067
0.00138361
0.00155865
0.00208913
0.00278967
0.00347918
0.00395787
0.00420537
0.00429775
0.00428408
0.00421007
0.00406233
0.00389086
0.00371097
0.0035314
0.00336227
0.00320556
0.00306131
0.00292623
0.00279532
0.00266615
0.00253993
0.00242742
0.00225849
0.00295395
0.00284222
0.00269897
0.00251484
0.00228267
0.00200134
0.00171029
0.00152319
0.00161626
0.00209955
0.00277523
0.00342904
0.0039057
0.00414519
0.00423855
0.00423648
0.00418023
0.00405414
0.00390169
0.00373774
0.00357162
0.00341292
0.00326459
0.0031275
0.00299928
0.00287537
0.00275374
0.00263742
0.00253256
0.00236579
0.00317265
0.00307059
0.00293546
0.00275599
0.00251885
0.00222417
0.00190575
0.00166708
0.00168127
0.00211948
0.0027275
0.00334104
0.00378965
0.00401904
0.00411563
0.00412963
0.00409341
0.00399472
0.00386657
0.00372322
0.00357502
0.00343095
0.00329467
0.00316782
0.00304887
0.00293436
0.00282256
0.00271878
0.00262313
0.00246215
0.00332371
0.00322853
0.00310899
0.0029393
0.00270521
0.00240593
0.00207171
0.00179453
0.00173684
0.00211011
0.00264779
0.00318529
0.00358713
0.0038083
0.00391125
0.00394511
0.00393052
0.00386281
0.00376369
0.0036467
0.00352172
0.00339812
0.00327943
0.00316757
0.00306201
0.00296078
0.00286325
0.00277289
0.00268732
0.00253741
0.0034059
0.00331412
0.00320008
0.003044
0.0028219
0.00252635
0.00218665
0.00188281
0.0017628
0.00202143
0.00247993
0.00293158
0.00328239
0.00350021
0.00361314
0.00366858
0.00367558
0.00363912
0.00357033
0.00348277
0.00338568
0.00328754
0.00319241
0.00310188
0.00301577
0.00293295
0.00285341
0.00277944
0.00270669
0.00257356
0.00340771
0.00332082
0.00321337
0.00306677
0.00285715
0.00257154
0.00223698
0.00191932
0.00174438
0.00185974
0.00222045
0.00259482
0.0029039
0.00312162
0.00324749
0.00332172
0.00334648
0.00333583
0.00329408
0.00323347
0.00316252
0.00308837
0.0030171
0.00294991
0.0028863
0.002825
0.00276635
0.00271155
0.00265576
0.00254486
0.00332479
0.00325261
0.00315637
0.00301933
0.00281827
0.00255148
0.00224001
0.00193343
0.00172576
0.0017242
0.00197154
0.00227867
0.00255476
0.00276981
0.00290636
0.0029888
0.00302284
0.0030264
0.00299966
0.00295464
0.00289918
0.00284009
0.00278501
0.00273539
0.00268975
0.00264493
0.00260294
0.00256422
0.00252353
0.00243499
0.00318709
0.00313441
0.00305188
0.00292773
0.0027515
0.00252514
0.00226647
0.00201035
0.00181733
0.00175675
0.00190843
0.00214536
0.00237825
0.00257189
0.00270708
0.00278459
0.00281789
0.00282452
0.00280266
0.00276298
0.00271297
0.00265911
0.00260804
0.00256198
0.00252037
0.00248125
0.00244411
0.00240732
0.00236417
0.00228797
0.00304754
0.00302217
0.00296648
0.00287382
0.00273992
0.00257229
0.00238712
0.00220672
0.0020599
0.00199367
0.00207666
0.00223905
0.00241183
0.00256205
0.00267094
0.002733
0.00276017
0.00276622
0.00274881
0.00271653
0.00267566
0.00263173
0.00258928
0.00255011
0.00251385
0.00247793
0.00244036
0.00239787
0.00234329
0.0022615
0.0029123
0.00289934
0.00288035
0.00283576
0.00275967
0.00265943
0.00254675
0.00243494
0.00233571
0.00228677
0.00232449
0.00241807
0.00252387
0.00261958
0.00268521
0.00272524
0.00274263
0.00274665
0.00273584
0.00271633
0.00269243
0.00266813
0.00264617
0.0026272
0.00261014
0.00259133
0.00256925
0.00253864
0.00249164
0.00242073
0.00282504
0.00282886
0.00282848
0.00281179
0.00277908
0.0027283
0.00266421
0.00259897
0.00254396
0.00250866
0.00251451
0.00254983
0.00259563
0.00263909
0.00266743
0.00268607
0.00269281
0.00269315
0.00268794
0.00268093
0.0026747
0.00267158
0.00267284
0.00267768
0.00268412
0.00268928
0.0026934
0.0026912
0.00267784
0.00265003
0.000170671
0.000180786
0.00018088
0.000178234
0.000173736
0.000168231
0.000162279
0.000156217
0.00015022
0.000144442
0.00013892
0.000133792
0.000129071
0.000124993
0.000121551
0.000118798
0.000116244
0.000113819
0.00011171
0.000109758
0.000107084
0.000102658
9.58389e-05
8.65254e-05
7.48091e-05
0.0003199
0.000312756
7.32497e-05
7.97744e-05
8.85081e-05
0.000662483
0.000799359
0.000831055
0.000813461
0.000780393
0.000745424
0.000712005
0.000681313
0.000653211
0.000627676
0.000603548
0.000581577
0.000559633
0.000539564
0.00051776
0.000494064
0.000462812
0.000434506
0.000415518
0.000407378
0.000405429
0.000401092
0.000385077
0.000349132
0.000302769
0.000312309
0.000358951
0.000276593
0.000301949
0.000388671
0.00104702
0.00128282
0.00138454
0.00140761
0.00139343
0.00136376
0.00132842
0.00129232
0.00125704
0.00122418
0.00119277
0.00116391
0.00113318
0.00110203
0.00106412
0.00101737
0.000951369
0.000887095
0.000835794
0.000801288
0.000778598
0.000757582
0.000722412
0.000651594
0.000559743
0.000503667
0.000489415
0.000421736
0.000447092
0.000576871
0.00128739
0.00161331
0.00175457
0.00182065
0.00183855
0.00183176
0.00181071
0.00178488
0.0017583
0.00173439
0.00171265
0.00169342
0.00166938
0.00163881
0.00159367
0.00153032
0.00143539
0.0013388
0.00125313
0.00118723
0.00113771
0.00109309
0.0010331
0.000932866
0.000800161
0.000694125
0.000642352
0.000560073
0.000546865
0.000669937
0.00140167
0.00172139
0.00194618
0.00208188
0.00213576
0.00216354
0.00216693
0.00216171
0.0021553
0.00215303
0.00215439
0.0021579
0.00215151
0.00212893
0.00208314
0.00200813
0.00188866
0.00176169
0.00164369
0.00154702
0.00147004
0.00140168
0.0013198
0.00119539
0.00103121
0.000883383
0.000800706
0.000707806
0.000658125
0.000741066
0.00143856
0.0017479
0.00199993
0.00217804
0.0023021
0.00237787
0.0024165
0.00244052
0.00246438
0.00249527
0.002531
0.00256758
0.0025859
0.00257847
0.00253512
0.00245095
0.0023093
0.00215295
0.00200386
0.00187801
0.00177531
0.00168497
0.00158449
0.00144191
0.00125498
0.00107456
0.000961824
0.000861506
0.000785963
0.000832204
0.00138529
0.00170233
0.00198654
0.00220883
0.00237342
0.00248906
0.00257156
0.00263539
0.00269961
0.00277513
0.00285646
0.00293458
0.00298473
0.00299481
0.00295488
0.00286223
0.00269894
0.00251341
0.00233455
0.00218144
0.00205539
0.00194557
0.00182963
0.00167413
0.00147163
0.00126737
0.00112874
0.00101985
0.000930359
0.00095367
0.00129596
0.0015934
0.001892
0.0021484
0.00235768
0.00251972
0.00264802
0.00275983
0.00287135
0.00300375
0.00314136
0.00326911
0.0033553
0.00338433
0.00334668
0.00324481
0.003059
0.00284462
0.00263748
0.00245949
0.00231267
0.00218605
0.00205756
0.00189315
0.00168132
0.00146028
0.00130023
0.0011829
0.00108733
0.00109418
0.0011775
0.00143658
0.0017379
0.00202233
0.00226861
0.00247476
0.00265587
0.00282326
0.0029951
0.00319018
0.00339398
0.00357838
0.00370309
0.0037514
0.00371266
0.0036
0.00339061
0.00314801
0.00291476
0.00271456
0.00254969
0.00240884
0.00227043
0.00209993
0.00188366
0.00165205
0.00147538
0.00135016
0.00125214
0.00124695
0.00106325
0.00126638
0.00154723
0.0018473
0.00212727
0.00237728
0.00260767
0.00283401
0.00307578
0.00333948
0.0036227
0.00386768
0.00403062
0.00409644
0.00405491
0.00392805
0.00369454
0.00342512
0.00316849
0.00294921
0.00276902
0.00261644
0.00247014
0.00229578
0.00207869
0.00184241
0.00165304
0.00152126
0.0014224
0.0014088
0.000974455
0.00111624
0.00135388
0.00164714
0.00194979
0.00224008
0.00252182
0.00280985
0.00312093
0.00347286
0.00384445
0.00413823
0.00434036
0.00441927
0.00437272
0.00422796
0.00397174
0.0036776
0.00340112
0.00316613
0.00297337
0.00281145
0.00265844
0.00248216
0.00226709
0.00203098
0.00183283
0.00169542
0.00159675
0.00157698
0.000931009
0.00101392
0.00119477
0.00145455
0.00175886
0.00207971
0.00241093
0.00276303
0.00314801
0.00359332
0.00404627
0.00439017
0.00462797
0.00471771
0.00466419
0.00449901
0.00422244
0.00390746
0.00361523
0.00336813
0.00316536
0.00299601
0.00283736
0.00266071
0.00244984
0.00221755
0.00201466
0.00187267
0.00177435
0.00174938
0.000939459
0.000977006
0.00110476
0.00130741
0.00158645
0.00191872
0.0022909
0.00270536
0.00316959
0.00370545
0.00423054
0.00462007
0.00488891
0.00498804
0.00492659
0.00474023
0.00444707
0.00411691
0.0038136
0.00355789
0.00334769
0.00317193
0.0030087
0.0028331
0.00262808
0.00240226
0.00219847
0.0020527
0.00195446
0.00192452
0.0010388
0.00103392
0.00109197
0.00124134
0.00147075
0.00178576
0.00218119
0.00264889
0.00320355
0.0038122
0.00439224
0.00483353
0.00512452
0.00522643
0.00515631
0.00495052
0.00464663
0.00430775
0.00399862
0.00373774
0.00352247
0.00334094
0.00317462
0.00300096
0.00280297
0.00258542
0.00238373
0.00223552
0.00213638
0.00210093
0.00123316
0.00120023
0.00120988
0.00127047
0.00142523
0.00171213
0.0021031
0.00261673
0.00323778
0.0039029
0.00452539
0.00503086
0.00532913
0.00542856
0.00534915
0.00512866
0.00482194
0.00448127
0.004172
0.00390937
0.00369082
0.0035045
0.00333599
0.00316534
0.00297536
0.00276727
0.00256988
0.00242056
0.00231922
0.00227683
0.00152397
0.00147401
0.00144519
0.00143887
0.00149557
0.00168254
0.00206119
0.00259902
0.00326201
0.00397205
0.00464301
0.0052015
0.00549434
0.00558803
0.00550105
0.00527299
0.00497296
0.00463782
0.00433411
0.00407322
0.00385289
0.00366328
0.00349272
0.00332635
0.00314501
0.00294719
0.0027558
0.00260622
0.00250152
0.00245026
0.00189675
0.00183005
0.00177102
0.00171251
0.0016832
0.00175741
0.00204549
0.00257973
0.0032774
0.0040313
0.00474704
0.0053205
0.00561049
0.00569776
0.00560719
0.00538118
0.00509754
0.00477595
0.00448332
0.00422753
0.00400774
0.00381669
0.00364526
0.00348143
0.00330957
0.00312272
0.00293882
0.00278867
0.00268089
0.00261899
0.00231848
0.00223512
0.00214767
0.00204558
0.00194824
0.0019211
0.00208918
0.00257943
0.00329501
0.00407427
0.00483287
0.00538187
0.00566865
0.00575022
0.005662
0.00544941
0.00519098
0.00489142
0.00461521
0.00436827
0.00415201
0.00396216
0.00379149
0.00362942
0.00346348
0.00328723
0.00311216
0.00296669
0.00285461
0.00278005
0.00274866
0.00264851
0.00253519
0.00239736
0.00224767
0.00214398
0.00219672
0.00260324
0.00330915
0.00411146
0.00484221
0.00538045
0.00565944
0.00573756
0.00565905
0.00547146
0.00524584
0.00497601
0.00472157
0.00448831
0.00427936
0.00409373
0.00392622
0.00376855
0.00360943
0.00344254
0.00327823
0.00313635
0.00301849
0.00292933
0.00315094
0.00303443
0.00289873
0.00273242
0.00254337
0.00237833
0.00234629
0.00266038
0.00330171
0.00407424
0.00476841
0.00530225
0.00557254
0.0056517
0.00559097
0.00543828
0.00525125
0.00501717
0.00478958
0.00457509
0.00437876
0.00420172
0.00404084
0.00388943
0.00373845
0.00358244
0.00342843
0.00328875
0.00316561
0.00306105
0.00349746
0.00336599
0.00321194
0.00302368
0.00280525
0.00259485
0.00250024
0.00268589
0.00326668
0.00396598
0.00464008
0.00513586
0.00539821
0.00548533
0.00545004
0.00533871
0.00519353
0.0049986
0.00480175
0.00461073
0.00443229
0.00426836
0.00411831
0.00397699
0.00383675
0.00369259
0.003549
0.00341209
0.00328592
0.00316743
0.00376802
0.00362452
0.00345673
0.00325247
0.00301262
0.00276806
0.00261194
0.00268351
0.00320314
0.00382687
0.00442497
0.00487156
0.00513093
0.00523513
0.00523111
0.00516302
0.00505967
0.00490392
0.00473946
0.00457397
0.00441629
0.00427029
0.0041361
0.00400948
0.00388373
0.00375403
0.00362257
0.00349117
0.00336569
0.00323706
0.00394841
0.0037979
0.00362194
0.0034078
0.0031537
0.00288304
0.00267177
0.00264549
0.00303247
0.00358397
0.00410752
0.00451544
0.0047791
0.00491
0.00493972
0.004912
0.00484676
0.00472681
0.00459265
0.00445415
0.00431936
0.00419316
0.00407715
0.00396792
0.00385934
0.00374633
0.0036288
0.00350822
0.00338836
0.00325498
0.00403103
0.00388158
0.0037046
0.00348809
0.0032281
0.00294074
0.00268591
0.00257438
0.0027912
0.00325387
0.00371977
0.00410542
0.00437981
0.00454393
0.00460588
0.00461211
0.004577
0.00448869
0.0043813
0.00426592
0.00415098
0.00404203
0.00394181
0.003848
0.00375534
0.00365882
0.00355695
0.00345021
0.00333988
0.00320702
0.00401923
0.00388188
0.00371471
0.00350683
0.00325334
0.00296517
0.00268881
0.00251693
0.00258163
0.00292558
0.00334338
0.00371683
0.00400226
0.00419608
0.00428667
0.00431643
0.00430114
0.00423653
0.0041494
0.00405096
0.00395001
0.00385243
0.00376197
0.00367749
0.00359487
0.00350964
0.00341971
0.00332466
0.0032234
0.00309435
0.0039374
0.00382512
0.00368178
0.00349752
0.00326797
0.00300234
0.00273776
0.00254497
0.00250924
0.00273934
0.00309252
0.00343729
0.0037192
0.00392625
0.00403543
0.0040746
0.00406863
0.0040188
0.00394573
0.0038594
0.00376859
0.00367898
0.00359448
0.00351487
0.00343716
0.00335737
0.00327323