/*--------------------------------*- C++ -*----------------------------------*\
| =========                 |                                                 |
| \\      /  F ield         | OpenFOAM: The Open Source CFD Toolbox           |
|  \\    /   O peration     | Version:  5.0                                   |
|   \\  /    A nd           | Web:      www.OpenFOAM.org                      |
|    \\/     M anipulation  |                                                 |
\*---------------------------------------------------------------------------*/
FoamFile
{
    version     2.0;
    format      ascii;
    class       volScalarField;
    location    "1000/porous";
    object      T;
}
// * * * * * * * * * * * * * * * * * * * * * * * * * * * * * * * * * * * * * //

dimensions      [0 0 0 1 0 0 0];

internalField   nonuniform List<scalar> 
36000
(
400
400
400
400
399.999
399.582
399.204
398.853
398.519
398.198
397.885
397.579
397.277
396.98
396.687
396.397
396.111
395.827
395.547
395.269
394.994
394.72
394.445
394.168
393.891
393.614
393.338
393.066
392.796
392.53
392.269
392.013
391.764
391.527
391.308
391.831
392.185
392.454
392.673
392.859
400
400
400
400
399.999
399.631
399.299
398.992
398.703
398.427
398.161
397.902
397.65
397.403
397.161
396.923
396.689
396.459
396.232
396.009
395.789
395.57
395.35
395.13
394.909
394.689
394.47
394.254
394.041
393.832
393.626
393.425
393.23
393.044
392.869
393.213
393.454
393.641
393.789
393.92
400
400
400
400
399.999
399.638
399.314
399.016
398.738
398.474
398.221
397.977
397.741
397.511
397.287
397.069
396.855
396.646
396.442
396.241
396.045
395.85
395.655
395.459
395.263
395.069
394.877
394.687
394.501
394.318
394.139
393.966
393.798
393.639
393.49
393.806
394.033
394.208
394.348
394.469
400
400
400
400
399.999
399.637
399.313
399.016
398.739
398.477
398.227
397.986
397.753
397.528
397.308
397.095
396.888
396.685
396.487
396.295
396.106
395.919
395.732
395.543
395.356
395.17
394.986
394.805
394.628
394.454
394.285
394.121
393.963
393.814
393.674
393.985
394.21
394.384
394.525
394.645
400
400
400
400
399.999
399.636
399.313
399.016
398.739
398.478
398.228
397.987
397.755
397.531
397.313
397.101
396.895
396.695
396.5
396.31
396.124
395.94
395.754
395.568
395.383
395.199
395.018
394.84
394.665
394.495
394.329
394.168
394.014
393.868
393.731
394.041
394.265
394.439
394.58
394.7
400
400
400
400
399.999
399.636
399.311
399.014
398.737
398.475
398.225
397.985
397.753
397.529
397.311
397.1
396.894
396.694
396.5
396.311
396.127
395.943
395.758
395.572
395.387
395.205
395.024
394.847
394.673
394.503
394.338
394.178
394.025
393.88
393.744
394.054
394.278
394.452
394.593
394.713
400
400
400
400
399.999
399.636
399.311
399.014
398.737
398.476
398.226
397.985
397.754
397.53
397.313
397.102
396.897
396.698
396.505
396.317
396.133
395.949
395.764
395.578
395.394
395.211
395.031
394.854
394.68
394.511
394.346
394.186
394.033
393.888
393.753
394.062
394.286
394.46
394.601
394.721
400
400
400
400
399.999
399.636
399.311
399.015
398.738
398.476
398.226
397.986
397.755
397.531
397.315
397.104
396.899
396.701
396.508
396.32
396.136
395.952
395.767
395.581
395.397
395.215
395.035
394.858
394.684
394.514
394.349
394.19
394.037
393.892
393.756
394.065
394.289
394.463
394.604
394.724
400
400
400
400
399.999
399.636
399.312
399.016
398.739
398.478
398.229
397.989
397.759
397.536
397.32
397.11
396.906
396.708
396.516
396.327
396.142
395.957
395.773
395.588
395.404
395.222
395.042
394.866
394.692
394.522
394.357
394.197
394.044
393.899
393.762
394.071
394.295
394.468
394.61
394.729
400
400
400
400
399.999
399.636
399.313
399.017
398.741
398.48
398.231
397.993
397.763
397.541
397.325
397.116
396.913
396.716
396.522
396.332
396.145
395.96
395.776
395.592
395.408
395.227
395.048
394.871
394.697
394.528
394.362
394.202
394.049
393.903
393.766
394.075
394.298
394.471
394.613
394.732
400
400
400
400
399.999
399.637
399.315
399.02
398.744
398.484
398.236
397.998
397.769
397.547
397.333
397.125
396.923
396.725
396.53
396.338
396.149
395.963
395.779
395.596
395.414
395.233
395.055
394.878
394.705
394.535
394.37
394.21
394.056
393.909
393.77
394.079
394.303
394.476
394.617
394.737
400
400
400
400
399.999
399.638
399.316
399.022
398.747
398.487
398.239
398.002
397.773
397.553
397.34
397.133
396.931
396.732
396.535
396.342
396.152
395.965
395.781
395.599
395.419
395.239
395.061
394.885
394.711
394.542
394.376
394.215
394.061
393.913
393.773
394.082
394.306
394.479
394.62
394.74
400
400
400
400
399.999
399.639
399.318
399.025
398.75
398.491
398.243
398.006
397.778
397.558
397.346
397.14
396.938
396.738
396.54
396.346
396.156
395.968
395.785
395.605
395.425
395.247
395.069
394.893
394.72
394.55
394.384
394.224
394.068
393.919
393.777
394.087
394.31
394.484
394.625
394.744
400
400
400
400
399.999
399.64
399.32
399.027
398.753
398.494
398.246
398.009
397.78
397.561
397.349
397.143
396.942
396.741
396.543
396.349
396.158
395.97
395.787
395.608
395.43
395.253
395.076
394.9
394.727
394.557
394.391
394.23
394.074
393.923
393.779
394.089
394.313
394.487
394.628
394.747
400
400
400
400
399.999
399.641
399.322
399.029
398.755
398.496
398.248
398.01
397.782
397.562
397.349
397.144
396.942
396.742
396.544
396.349
396.158
395.971
395.788
395.61
395.433
395.257
395.081
394.906
394.733
394.563
394.396
394.234
394.078
393.926
393.781
394.091
394.315
394.489
394.63
394.75
400
400
400
400
399.999
399.644
399.325
399.033
398.759
398.499
398.251
398.013
397.783
397.562
397.349
397.143
396.941
396.741
396.543
396.348
396.157
395.97
395.788
395.61
395.434
395.259
395.083
394.909
394.736
394.566
394.399
394.236
394.078
393.925
393.777
394.088
394.313
394.487
394.628
394.748
400
400
400
400
399.999
399.644
399.327
399.035
398.761
398.501
398.252
398.013
397.783
397.561
397.347
397.139
396.937
396.737
396.54
396.345
396.155
395.968
395.785
395.608
395.432
395.257
395.082
394.908
394.735
394.564
394.397
394.234
394.075
393.921
393.773
394.084
394.309
394.483
394.624
394.744
400
400
400
400
399.999
399.646
399.329
399.037
398.763
398.503
398.253
398.014
397.783
397.56
397.344
397.136
396.933
396.733
396.536
396.343
396.153
395.966
395.783
395.606
395.43
395.254
395.079
394.904
394.731
394.561
394.393
394.229
394.07
393.915
393.765
394.078
394.303
394.477
394.619
394.739
400
400
400
400
399.999
399.648
399.332
399.04
398.765
398.504
398.255
398.014
397.783
397.559
397.342
397.132
396.929
396.73
396.533
396.341
396.151
395.965
395.782
395.603
395.426
395.249
395.074
394.899
394.726
394.555
394.387
394.222
394.062
393.906
393.755
394.068
394.294
394.469
394.611
394.732
400
400
400
400
399.999
399.649
399.333
399.041
398.767
398.506
398.255
398.015
397.782
397.558
397.34
397.129
396.925
396.727
396.532
396.341
396.152
395.967
395.784
395.604
395.425
395.246
395.07
394.894
394.721
394.549
394.381
394.216
394.055
393.899
393.748
394.062
394.288
394.463
394.606
394.727
400
400
400
400
399.999
399.65
399.335
399.043
398.768
398.507
398.256
398.015
397.782
397.556
397.338
397.126
396.922
396.723
396.53
396.341
396.154
395.969
395.785
395.603
395.422
395.242
395.065
394.889
394.714
394.542
394.373
394.208
394.047
393.89
393.738
394.053
394.28
394.456
394.599
394.72
400
400
400
400
399.999
399.651
399.336
399.044
398.769
398.508
398.257
398.015
397.782
397.556
397.337
397.125
396.92
396.721
396.53
396.341
396.155
395.97
395.786
395.602
395.42
395.239
395.061
394.884
394.709
394.537
394.368
394.202
394.041
393.883
393.731
394.047
394.274
394.45
394.594
394.715
400
400
400
400
399.999
399.651
399.336
399.044
398.77
398.508
398.257
398.015
397.781
397.555
397.335
397.123
396.917
396.719
396.527
396.34
396.154
395.968
395.782
395.597
395.414
395.233
395.054
394.877
394.702
394.529
394.36
394.194
394.032
393.875
393.723
394.039
394.267
394.443
394.587
394.708
400
400
400
400
399.999
399.652
399.337
399.045
398.771
398.509
398.258
398.016
397.782
397.556
397.336
397.123
396.917
396.719
396.528
396.34
396.154
395.967
395.781
395.595
395.412
395.231
395.051
394.874
394.698
394.526
394.356
394.19
394.028
393.87
393.718
394.034
394.263
394.44
394.583
394.705
400
400
400
400
399.999
399.652
399.337
399.046
398.771
398.509
398.258
398.016
397.782
397.555
397.335
397.122
396.916
396.717
396.526
396.337
396.15
395.962
395.775
395.59
395.406
395.224
395.045
394.867
394.691
394.518
394.348
394.182
394.02
393.861
393.71
394.026
394.255
394.432
394.576
394.697
400
400
400
400
399.999
399.652
399.338
399.047
398.773
398.511
398.26
398.018
397.784
397.557
397.337
397.123
396.917
396.718
396.526
396.336
396.147
395.959
395.771
395.585
395.401
395.219
395.038
394.86
394.683
394.51
394.339
394.172
394.009
393.85
393.697
394.014
394.243
394.42
394.563
394.685
400
400
400
400
399.999
399.652
399.338
399.046
398.771
398.51
398.258
398.015
397.78
397.552
397.33
397.116
396.908
396.707
396.513
396.32
396.129
395.938
395.748
395.56
395.373
395.188
395.005
394.824
394.646
394.47
394.297
394.126
393.96
393.798
393.642
393.96
394.189
394.366
394.509
394.631
400
400
400
400
399.999
399.653
399.338
399.045
398.768
398.504
398.25
398.004
397.765
397.533
397.306
397.087
396.873
396.666
396.464
396.265
396.066
395.867
395.67
395.474
395.28
395.087
394.896
394.706
394.519
394.334
394.152
393.972
393.797
393.625
393.46
393.783
394.014
394.192
394.334
394.457
400
400
400
400
399.999
399.645
399.322
399.019
398.731
398.455
398.187
397.926
397.671
397.421
397.177
396.938
396.704
396.476
396.252
396.029
395.807
395.585
395.364
395.144
394.924
394.706
394.49
394.275
394.061
393.85
393.641
393.434
393.231
393.033
392.841
393.191
393.437
393.626
393.776
393.909
400
400
400
400
399.999
399.597
399.228
398.88
398.547
398.224
397.909
397.6
397.296
396.995
396.7
396.409
396.123
395.842
395.564
395.288
395.011
394.734
394.457
394.182
393.907
393.633
393.36
393.089
392.82
392.552
392.287
392.025
391.767
391.514
391.273
391.805
392.164
392.436
392.658
392.845
400
400
400
400
399.999
399.778
399.526
399.258
398.979
398.696
398.411
398.125
397.84
397.556
397.272
396.991
396.711
396.432
396.156
395.881
395.608
395.337
395.065
394.791
394.517
394.243
393.969
393.698
393.428
393.161
392.898
392.639
392.386
392.142
391.911
392.158
392.394
392.604
392.79
392.953
400
400
400
400
400
399.809
399.597
399.371
399.139
398.904
398.668
398.433
398.2
397.968
397.738
397.511
397.285
397.062
396.842
396.624
396.408
396.194
395.98
395.765
395.55
395.335
395.122
394.91
394.699
394.492
394.287
394.086
393.889
393.698
393.515
393.63
393.751
393.868
393.975
394.076
400
400
400
400
400
399.814
399.608
399.391
399.168
398.945
398.722
398.502
398.284
398.069
397.857
397.648
397.443
397.241
397.042
396.847
396.654
396.464
396.274
396.084
395.894
395.705
395.518
395.332
395.148
394.967
394.79
394.616
394.446
394.282
394.126
394.228
394.337
394.443
394.54
394.632
400
400
400
400
400
399.813
399.607
399.39
399.169
398.948
398.727
398.509
398.295
398.084
397.876
397.673
397.473
397.277
397.085
396.896
396.711
396.528
396.346
396.164
395.982
395.801
395.622
395.445
395.271
395.099
394.93
394.766
394.606
394.452
394.305
394.406
394.513
394.618
394.716
394.807
400
400
400
400
400
399.813
399.607
399.39
399.17
398.948
398.728
398.511
398.297
398.087
397.88
397.678
397.48
397.286
397.096
396.909
396.727
396.547
396.367
396.187
396.007
395.829
395.653
395.479
395.307
395.138
394.972
394.811
394.654
394.504
394.36
394.461
394.568
394.673
394.771
394.862
400
400
400
400
400
399.812
399.606
399.389
399.167
398.945
398.725
398.508
398.293
398.083
397.877
397.675
397.477
397.284
397.094
396.909
396.728
396.548
396.369
396.189
396.011
395.833
395.658
395.484
395.313
395.145
394.98
394.82
394.664
394.515
394.372
394.473
394.58
394.685
394.784
394.875
400
400
400
400
400
399.812
399.606
399.389
399.167
398.946
398.725
398.508
398.294
398.084
397.879
397.677
397.479
397.286
397.097
396.913
396.732
396.553
396.374
396.194
396.016
395.839
395.664
395.49
395.32
395.152
394.987
394.827
394.672
394.522
394.38
394.481
394.588
394.693
394.791
394.882
400
400
400
400
400
399.812
399.605
399.388
399.167
398.945
398.725
398.507
398.294
398.084
397.879
397.677
397.48
397.287
397.099
396.915
396.734
396.554
396.375
396.196
396.018
395.841
395.666
395.493
395.322
395.154
394.99
394.83
394.674
394.525
394.382
394.483
394.591
394.696
394.794
394.885
400
400
400
400
400
399.812
399.606
399.389
399.168
398.946
398.726
398.51
398.296
398.087
397.882
397.682
397.485
397.293
397.105
396.921
396.739
396.56
396.38
396.202
396.024
395.847
395.672
395.499
395.329
395.161
394.997
394.836
394.681
394.531
394.388
394.489
394.596
394.701
394.799
394.89
400
400
400
400
400
399.812
399.606
399.39
399.169
398.947
398.728
398.511
398.299
398.09
397.886
397.686
397.49
397.298
397.11
396.925
396.743
396.562
396.383
396.205
396.027
395.851
395.676
395.503
395.333
395.165
395.001
394.84
394.685
394.535
394.392
394.492
394.599
394.704
394.802
394.893
400
400
400
400
400
399.813
399.607
399.391
399.171
398.95
398.731
398.515
398.303
398.095
397.892
397.693
397.498
397.306
397.117
396.931
396.747
396.566
396.387
396.209
396.032
395.856
395.682
395.51
395.339
395.172
395.008
394.847
394.691
394.541
394.396
394.497
394.604
394.708
394.806
394.897
400
400
400
400
400
399.813
399.608
399.392
399.172
398.952
398.733
398.517
398.306
398.099
397.896
397.698
397.504
397.312
397.122
396.935
396.75
396.568
396.389
396.211
396.035
395.86
395.687
395.514
395.345
395.177
395.013
394.852
394.696
394.545
394.4
394.5
394.607
394.712
394.809
394.9
400
400
400
400
400
399.814
399.609
399.394
399.175
398.954
398.736
398.521
398.31
398.103
397.901
397.703
397.509
397.317
397.127
396.939
396.754
396.572
396.393
396.216
396.041
395.866
395.693
395.522
395.352
395.185
395.02
394.86
394.703
394.551
394.405
394.505
394.612
394.716
394.814
394.905
400
400
400
400
400
399.815
399.61
399.395
399.176
398.956
398.738
398.523
398.312
398.105
397.903
397.706
397.512
397.32
397.129
396.942
396.756
396.574
396.395
396.218
396.044
395.871
395.698
395.527
395.358
395.191
395.026
394.865
394.708
394.556
394.408
394.508
394.615
394.719
394.817
394.908
400
400
400
400
400
399.815
399.611
399.397
399.178
398.958
398.74
398.524
398.313
398.106
397.904
397.707
397.512
397.32
397.13
396.942
396.757
396.574
396.395
396.22
396.046
395.874
395.702
395.531
395.362
395.195
395.031
394.87
394.712
394.559
394.41
394.51
394.617
394.722
394.819
394.91
400
400
400
400
400
399.816
399.613
399.399
399.181
398.961
398.742
398.527
398.315
398.107
397.905
397.707
397.512
397.32
397.129
396.941
396.756
396.574
396.395
396.22
396.047
395.875
395.704
395.533
395.365
395.198
395.033
394.871
394.713
394.559
394.408
394.508
394.615
394.72
394.818
394.909
400
400
400
400
400
399.817
399.614
399.4
399.182
398.962
398.743
398.527
398.315
398.107
397.903
397.705
397.51
397.317
397.127
396.939
396.754
396.572
396.393
396.218
396.045
395.873
395.702
395.532
395.363
395.196
395.031
394.869
394.711
394.556
394.405
394.505
394.612
394.716
394.814
394.905
400
400
400
400
400
399.818
399.615
399.402
399.184
398.964
398.745
398.529
398.316
398.107
397.903
397.703
397.507
397.314
397.124
396.937
396.752
396.57
396.391
396.216
396.043
395.871
395.7
395.53
395.361
395.193
395.028
394.866
394.707
394.551
394.399
394.499
394.607
394.711
394.809
394.9
400
400
400
400
400
399.818
399.617
399.404
399.185
398.965
398.746
398.53
398.316
398.107
397.901
397.701
397.505
397.312
397.122
396.935
396.75
396.568
396.39
396.214
396.04
395.867
395.696
395.525
395.356
395.188
395.023
394.86
394.7
394.544
394.391
394.491
394.599
394.704
394.802
394.893
400
400
400
400
400
399.819
399.618
399.405
399.187
398.967
398.747
398.53
398.317
398.107
397.901
397.699
397.503
397.31
397.121
396.935
396.751
396.57
396.391
396.215
396.04
395.866
395.694
395.523
395.353
395.185
395.019
394.856
394.695
394.538
394.386
394.486
394.594
394.699
394.797
394.888
400
400
400
400
400
399.82
399.619
399.406
399.188
398.968
398.748
398.531
398.317
398.106
397.9
397.698
397.5
397.308
397.119
396.934
396.751
396.571
396.392
396.215
396.039
395.864
395.69
395.519
395.348
395.18
395.013
394.849
394.689
394.531
394.378
394.478
394.586
394.691
394.79
394.882
400
400
400
400
400
399.82
399.619
399.407
399.189
398.969
398.749
398.532
398.318
398.107
397.9
397.698
397.5
397.307
397.119
396.935
396.753
396.572
396.393
396.215
396.038
395.862
395.688
395.516
395.345
395.176
395.009
394.845
394.684
394.526
394.373
394.473
394.581
394.687
394.786
394.878
400
400
400
400
400
399.82
399.62
399.408
399.189
398.969
398.75
398.532
398.317
398.106
397.899
397.696
397.498
397.305
397.117
396.933
396.751
396.571
396.391
396.212
396.034
395.858
395.684
395.511
395.339
395.17
395.003
394.838
394.677
394.519
394.365
394.466
394.574
394.68
394.779
394.871
400
400
400
400
400
399.821
399.621
399.409
399.191
398.971
398.752
398.534
398.319
398.108
397.901
397.698
397.5
397.307
397.119
396.935
396.753
396.571
396.391
396.212
396.034
395.857
395.682
395.509
395.337
395.168
395.001
394.836
394.674
394.516
394.362
394.463
394.571
394.677
394.776
394.868
400
400
400
400
400
399.821
399.621
399.409
399.191
398.971
398.752
398.534
398.319
398.108
397.9
397.697
397.499
397.305
397.117
396.933
396.75
396.568
396.387
396.207
396.029
395.852
395.677
395.503
395.331
395.161
394.994
394.829
394.667
394.508
394.354
394.455
394.564
394.67
394.769
394.861
400
400
400
400
400
399.821
399.622
399.41
399.193
398.974
398.754
398.537
398.322
398.111
397.903
397.7
397.501
397.307
397.119
396.933
396.749
396.567
396.385
396.205
396.026
395.848
395.672
395.498
395.325
395.154
394.986
394.82
394.658
394.498
394.343
394.444
394.552
394.658
394.757
394.849
400
400
400
400
400
399.821
399.622
399.41
399.192
398.972
398.752
398.534
398.319
398.106
397.897
397.693
397.493
397.298
397.107
396.919
396.733
396.547
396.363
396.181
395.999
395.819
395.641
395.464
395.288
395.115
394.944
394.776
394.61
394.447
394.289
394.39
394.498
394.604
394.703
394.794
400
400
400
400
400
399.821
399.622
399.409
399.19
398.968
398.746
398.525
398.306
398.089
397.876
397.666
397.461
397.26
397.062
396.867
396.674
396.481
396.29
396.099
395.91
395.722
395.535
395.35
395.166
394.984
394.804
394.626
394.451
394.279
394.111
394.213
394.323
394.43
394.528
394.621
400
400
400
400
400
399.817
399.61
399.389
399.159
398.925
398.69
398.454
398.219
397.986
397.755
397.526
397.301
397.079
396.86
396.642
396.426
396.21
395.994
395.779
395.565
395.352
395.139
394.928
394.718
394.509
394.302
394.098
393.895
393.696
393.502
393.616
393.738
393.857
393.964
394.066
400
400
400
400
399.999
399.786
399.541
399.276
399
398.717
398.432
398.145
397.858
397.571
397.286
397.003
396.723
396.446
396.171
395.898
395.624
395.351
395.077
394.804
394.532
394.26
393.989
393.718
393.45
393.182
392.917
392.654
392.393
392.138
391.89
392.138
392.376
392.588
392.776
392.94
400
400
400
400
400
399.861
399.701
399.522
399.327
399.118
398.898
398.67
398.434
398.193
397.947
397.699
397.447
397.194
396.939
396.684
396.429
396.172
395.914
395.655
395.394
395.131
394.869
394.607
394.345
394.085
393.827
393.571
393.32
393.074
392.838
392.912
393.006
393.109
393.215
393.314
400
400
400
400
400
399.88
399.746
399.599
399.44
399.273
399.098
398.917
398.732
398.543
398.352
398.159
397.964
397.769
397.573
397.377
397.181
396.985
396.788
396.591
396.392
396.193
395.994
395.796
395.598
395.402
395.206
395.013
394.823
394.637
394.456
394.456
394.471
394.497
394.528
394.563
400
400
400
400
400
399.883
399.753
399.612
399.461
399.303
399.139
398.971
398.8
398.626
398.452
398.276
398.1
397.925
397.75
397.576
397.402
397.23
397.057
396.884
396.71
396.537
396.364
396.191
396.02
395.85
395.682
395.517
395.354
395.195
395.041
395.043
395.056
395.077
395.104
395.135
400
400
400
400
400
399.883
399.753
399.612
399.462
399.305
399.143
398.977
398.809
398.639
398.468
398.297
398.127
397.956
397.787
397.62
397.453
397.288
397.122
396.956
396.791
396.625
396.46
396.297
396.134
395.973
395.815
395.658
395.505
395.355
395.21
395.215
395.23
395.252
395.28
395.312
400
400
400
400
400
399.883
399.753
399.612
399.462
399.306
399.144
398.979
398.811
398.642
398.472
398.302
398.133
397.964
397.797
397.632
397.468
397.304
397.141
396.977
396.814
396.651
396.489
396.328
396.169
396.011
395.855
395.701
395.551
395.405
395.263
395.269
395.285
395.308
395.336
395.369
400
400
400
400
400
399.882
399.752
399.611
399.46
399.303
399.141
398.976
398.808
398.639
398.469
398.299
398.13
397.962
397.795
397.63
397.467
397.304
397.141
396.979
396.816
396.654
396.492
396.332
396.173
396.016
395.861
395.709
395.559
395.414
395.273
395.28
395.296
395.319
395.348
395.382
400
400
400
400
400
399.882
399.752
399.611
399.46
399.303
399.142
398.976
398.808
398.639
398.47
398.3
398.131
397.963
397.797
397.633
397.47
397.307
397.145
396.982
396.82
396.658
396.497
396.337
396.178
396.022
395.867
395.715
395.566
395.421
395.28
395.287
395.303
395.327
395.356
395.389
400
400
400
400
400
399.882
399.752
399.61
399.46
399.303
399.141
398.975
398.807
398.638
398.469
398.299
398.131
397.963
397.797
397.633
397.47
397.308
397.145
396.983
396.82
396.658
396.498
396.338
396.179
396.022
395.868
395.716
395.567
395.422
395.281
395.288
395.304
395.328
395.357
395.39
400
400
400
400
400
399.882
399.752
399.611
399.461
399.304
399.142
398.977
398.809
398.641
398.471
398.302
398.134
397.967
397.802
397.637
397.474
397.312
397.149
396.987
396.825
396.663
396.503
396.343
396.185
396.028
395.873
395.721
395.572
395.427
395.287
395.293
395.309
395.333
395.362
395.395
400
400
400
400
400
399.882
399.752
399.611
399.461
399.304
399.143
398.978
398.81
398.642
398.473
398.305
398.137
397.97
397.805
397.64
397.476
397.313
397.151
396.989
396.827
396.666
396.505
396.346
396.187
396.031
395.876
395.724
395.575
395.43
395.289
395.295
395.311
395.335
395.364
395.397
400
400
400
400
400
399.883
399.753
399.612
399.462
399.306
399.145
398.98
398.813
398.646
398.478
398.31
398.143
397.976
397.81
397.645
397.481
397.317
397.155
396.993
396.831
396.67
396.51
396.351
396.193
396.036
395.882
395.73
395.581
395.435
395.293
395.3
395.316
395.339
395.368
395.401
400
400
400
400
400
399.883
399.753
399.613
399.463
399.307
399.146
398.982
398.815
398.648
398.48
398.313
398.146
397.98
397.813
397.648
397.483
397.319
397.157
396.995
396.834
396.673
396.513
396.354
396.196
396.04
395.885
395.733
395.584
395.438
395.296
395.303
395.319
395.342
395.371
395.404
400
400
400
400
400
399.883
399.754
399.614
399.465
399.309
399.148
398.984
398.818
398.651
398.484
398.317
398.151
397.984
397.818
397.652
397.487
397.323
397.16
396.999
396.838
396.678
396.519
396.36
396.202
396.046
395.892
395.74
395.59
395.444
395.301
395.307
395.323
395.347
395.375
395.409
400
400
400
400
400
399.884
399.755
399.615
399.466
399.31
399.15
398.985
398.819
398.652
398.485
398.319
398.153
397.986
397.819
397.653
397.488
397.324
397.162
397.001
396.841
396.681
396.522
396.364
396.207
396.051
395.896
395.744
395.595
395.448
395.304
395.31
395.326
395.35
395.378
395.411
400
400
400
400
400
399.884
399.755
399.616
399.467
399.311
399.151
398.987
398.82
398.653
398.486
398.32
398.153
397.987
397.82
397.654
397.489
397.325
397.162
397.002
396.842
396.683
396.525
396.367
396.21
396.054
395.9
395.748
395.598
395.451
395.307
395.313
395.329
395.352
395.381
395.414
400
400
400
400
400
399.885
399.757
399.617
399.469
399.313
399.153
398.988
398.822
398.655
398.487
398.32
398.153
397.987
397.82
397.654
397.489
397.325
397.162
397.002
396.843
396.684
396.526
396.368
396.211
396.056
395.902
395.749
395.599
395.451
395.306
395.312
395.328
395.351
395.38
395.413
400
400
400
400
400
399.885
399.757
399.618
399.47
399.314
399.153
398.989
398.822
398.655
398.487
398.319
398.152
397.985
397.818
397.652
397.487
397.323
397.161
397
396.841
396.682
396.524
396.367
396.21
396.054
395.9
395.747
395.597
395.449
395.304
395.309
395.325
395.348
395.377
395.41
400
400
400
400
400
399.886
399.758
399.619
399.471
399.315
399.155
398.99
398.823
398.655
398.486
398.318
398.151
397.984
397.817
397.651
397.486
397.322
397.159
396.999
396.839
396.681
396.523
396.365
396.208
396.052
395.898
395.745
395.594
395.446
395.3
395.305
395.321
395.344
395.373
395.406
400
400
400
400
400
399.886
399.759
399.62
399.472
399.317
399.156
398.991
398.824
398.655
398.486
398.317
398.149
397.982
397.815
397.649
397.485
397.321
397.158
396.997
396.838
396.678
396.52
396.362
396.205
396.049
395.894
395.74
395.589
395.44
395.293
395.299
395.315
395.338
395.366
395.4
400
400
400
400
400
399.886
399.76
399.621
399.473
399.317
399.157
398.992
398.824
398.655
398.486
398.317
398.149
397.981
397.815
397.65
397.485
397.322
397.16
396.999
396.838
396.678
396.519
396.361
396.203
396.047
395.891
395.738
395.586
395.437
395.29
395.295
395.311
395.334
395.363
395.396
400
400
400
400
400
399.887
399.76
399.622
399.474
399.318
399.157
398.992
398.825
398.655
398.486
398.316
398.147
397.98
397.814
397.649
397.485
397.322
397.16
396.998
396.837
396.677
396.517
396.358
396.2
396.043
395.888
395.734
395.581
395.432
395.284
395.29
395.305
395.329
395.357
395.391
400
400
400
400
400
399.887
399.761
399.622
399.475
399.319
399.158
398.993
398.826
398.656
398.487
398.317
398.148
397.98
397.815
397.65
397.487
397.324
397.162
397
396.838
396.677
396.517
396.358
396.199
396.042
395.886
395.731
395.579
395.429
395.281
395.287
395.302
395.326
395.354
395.388
400
400
400
400
400
399.887
399.761
399.623
399.475
399.32
399.159
398.993
398.826
398.656
398.486
398.316
398.147
397.979
397.814
397.649
397.486
397.323
397.16
396.998
396.836
396.674
396.514
396.354
396.195
396.037
395.881
395.727
395.574
395.423
395.275
395.281
395.297
395.32
395.349
395.382
400
400
400
400
400
399.887
399.761
399.623
399.476
399.321
399.16
398.995
398.828
398.658
398.488
398.318
398.149
397.981
397.816
397.652
397.488
397.325
397.162
396.999
396.837
396.675
396.514
396.354
396.195
396.037
395.881
395.726
395.573
395.422
395.274
395.28
395.295
395.319
395.347
395.381
400
400
400
400
400
399.888
399.762
399.624
399.476
399.321
399.16
398.995
398.828
398.658
398.488
398.318
398.148
397.981
397.815
397.65
397.486
397.323
397.159
396.996
396.833
396.671
396.51
396.35
396.19
396.032
395.875
395.72
395.567
395.416
395.267
395.273
395.288
395.312
395.34
395.373
400
400
400
400
400
399.888
399.762
399.625
399.478
399.323
399.162
398.998
398.83
398.661
398.491
398.321
398.151
397.983
397.817
397.652
397.487
397.323
397.158
396.995
396.831
396.669
396.507
396.346
396.186
396.027
395.869
395.713
395.559
395.407
395.258
395.263
395.278
395.301
395.329
395.362
400
400
400
400
400
399.888
399.762
399.624
399.477
399.322
399.161
398.996
398.827
398.657
398.486
398.314
398.144
397.974
397.806
397.639
397.472
397.305
397.139
396.973
396.807
396.642
396.477
396.314
396.151
395.989
395.829
395.67
395.513
395.358
395.205
395.209
395.223
395.246
395.273
395.305
400
400
400
400
400
399.888
399.762
399.624
399.475
399.319
399.156
398.988
398.817
398.643
398.468
398.292
398.116
397.941
397.767
397.593
397.42
397.246
397.072
396.899
396.725
396.552
396.38
396.208
396.036
395.866
395.697
395.529
395.362
395.198
395.036
395.037
395.05
395.071
395.097
395.128
400
400
400
400
400
399.885
399.755
399.61
399.454
399.288
399.114
398.933
398.748
398.558
398.366
398.172
397.978
397.783
397.588
397.392
397.196
396.999
396.802
396.604
396.406
396.208
396.01
395.812
395.614
395.417
395.221
395.026
394.832
394.641
394.452
394.451
394.465
394.491
394.522
394.557
400
400
400
400
400
399.866
399.71
399.534
399.341
399.133
398.914
398.685
398.449
398.207
397.96
397.71
397.459
397.206
396.953
396.699
396.443
396.185
395.927
395.667
395.407
395.146
394.885
394.624
394.364
394.104
393.844
393.586
393.33
393.077
392.828
392.901
392.995
393.098
393.205
393.303
400
400
400
400
400
399.893
399.775
399.646
399.505
399.353
399.191
399.019
398.838
398.65
398.455
398.253
398.045
397.833
397.616
397.396
397.173
396.947
396.717
396.484
396.248
396.009
395.768
395.526
395.284
395.041
394.798
394.556
394.316
394.08
393.85
393.846
393.856
393.878
393.908
393.935
400
400
400
400
400
399.908
399.808
399.7
399.586
399.465
399.337
399.204
399.066
398.922
398.775
398.623
398.469
398.311
398.151
397.989
397.825
397.659
397.491
397.321
397.149
396.976
396.801
396.626
396.45
396.274
396.098
395.923
395.749
395.577
395.409
395.371
395.341
395.317
395.299
395.283
400
400
400
400
400
399.909
399.812
399.709
399.6
399.486
399.367
399.243
399.116
398.985
398.851
398.715
398.577
398.437
398.296
398.154
398.01
397.866
397.72
397.573
397.425
397.276
397.126
396.976
396.826
396.676
396.527
396.379
396.232
396.088
395.946
395.917
395.893
395.874
395.859
395.847
400
400
400
400
400
399.909
399.812
399.709
399.601
399.488
399.37
399.248
399.123
398.995
398.865
398.732
398.598
398.463
398.327
398.19
398.053
397.915
397.776
397.636
397.495
397.353
397.211
397.069
396.928
396.786
396.646
396.507
396.369
396.234
396.102
396.077
396.057
396.041
396.029
396.022
400
400
400
400
400
399.909
399.812
399.709
399.601
399.488
399.37
399.249
399.125
398.997
398.868
398.736
398.604
398.47
398.335
398.201
398.065
397.93
397.793
397.655
397.516
397.377
397.237
397.098
396.959
396.82
396.683
396.547
396.412
396.28
396.151
396.128
396.11
396.095
396.084
396.079
400
400
400
400
400
399.909
399.812
399.709
399.6
399.487
399.369
399.247
399.122
398.995
398.865
398.734
398.601
398.468
398.334
398.199
398.065
397.929
397.793
397.655
397.517
397.378
397.239
397.101
396.962
396.825
396.688
396.553
396.419
396.288
396.16
396.138
396.12
396.106
396.096
396.091
400
400
400
400
400
399.909
399.812
399.709
399.6
399.487
399.369
399.247
399.123
398.995
398.866
398.735
398.602
398.469
398.335
398.201
398.067
397.931
397.795
397.658
397.52
397.381
397.243
397.104
396.966
396.829
396.693
396.558
396.424
396.294
396.165
396.144
396.126
396.112
396.102
396.098
400
400
400
400
400
399.909
399.812
399.709
399.6
399.486
399.368
399.247
399.122
398.995
398.865
398.734
398.602
398.468
398.335
398.201
398.066
397.931
397.795
397.657
397.519
397.381
397.243
397.104
396.966
396.829
396.693
396.558
396.424
396.294
396.166
396.144
396.126
396.113
396.103
396.098
400
400