/*--------------------------------*- C++ -*----------------------------------*\
| =========                 |                                                 |
| \\      /  F ield         | OpenFOAM: The Open Source CFD Toolbox           |
|  \\    /   O peration     | Version:  5.0                                   |
|   \\  /    A nd           | Web:      www.OpenFOAM.org                      |
|    \\/     M anipulation  |                                                 |
\*---------------------------------------------------------------------------*/
FoamFile
{
    version     2.0;
    format      ascii;
    class       volScalarField;
    location    "1200/air";
    object      alphat;
}
// * * * * * * * * * * * * * * * * * * * * * * * * * * * * * * * * * * * * * //

dimensions      [1 -1 -1 0 0 0 0];

internalField   nonuniform List<scalar> 
243000
(
0.000144131
0.000150995
0.000150139
0.000147025
0.000142404
0.000136988
0.000131245
0.000125463
0.000119787
0.000114321
0.00010907
0.000104073
9.93319e-05
9.50421e-05
9.13634e-05
8.86596e-05
8.70645e-05
8.63958e-05
8.66785e-05
8.69984e-05
8.71126e-05
8.68775e-05
8.82746e-05
8.61244e-05
8.63413e-05
8.57975e-05
8.44264e-05
0.000357356
0.000343769
8.49113e-05
0.000623137
0.000675898
0.000694169
0.000701142
0.000700365
0.000694885
0.000686105
0.000674968
0.000662024
0.00064767
0.00063199
0.000615523
0.000598628
0.000582755
0.000568942
0.000559187
0.00055328
0.000550347
0.000546753
0.000540861
0.00053158
0.000518561
0.000496538
0.000482999
0.000457186
0.000434729
0.000411445
0.000385831
0.000350591
0.000344271
0.000661493
0.00071958
0.000741919
0.000751852
0.000752763
0.000748256
0.000739984
0.000729047
0.000716069
0.000701598
0.000685884
0.000669706
0.000653597
0.000639251
0.000627745
0.000621049
0.000618217
0.000617252
0.000614466
0.000608227
0.000597667
0.000582846
0.000563842
0.000542184
0.000517233
0.000490253
0.000462031
0.000429092
0.000391968
0.000366628
0.000659103
0.000727299
0.000759471
0.00077499
0.000779716
0.000778061
0.000771943
0.000762625
0.000750909
0.000737518
0.000722895
0.000708065
0.000693752
0.000681878
0.000673525
0.000670544
0.000671163
0.000672444
0.000670568
0.000664057
0.00065239
0.000636021
0.000615554
0.000591554
0.000564431
0.000534619
0.000503045
0.000468153
0.000430221
0.000398059
0.000632404
0.000710909
0.000753113
0.00077666
0.000787864
0.000790804
0.000788054
0.000781408
0.000771908
0.000760474
0.000747784
0.000735129
0.000723428
0.000714808
0.000710272
0.00071145
0.00071559
0.000719114
0.000718121
0.000711353
0.000698707
0.000681048
0.000659196
0.000633675
0.000604891
0.000573189
0.000539349
0.000502725
0.000464371
0.000429123
0.000592151
0.000677742
0.000730408
0.000762766
0.00078117
0.000789861
0.000791676
0.000788654
0.000782212
0.000773487
0.000763429
0.000753633
0.000745232
0.000740528
0.000740374
0.000745992
0.000753608
0.000759249
0.000759041
0.000752017
0.000738523
0.000719771
0.000696785
0.000670154
0.000640233
0.000607322
0.000572001
0.000533836
0.00049495
0.000457872
0.000551911
0.000639472
0.000696309
0.000735948
0.000762114
0.000777488
0.000784868
0.000786452
0.000783844
0.000778499
0.000771723
0.000765406
0.00076092
0.000760697
0.000765461
0.000775664
0.000786634
0.000794213
0.000794679
0.000787394
0.000773157
0.000753479
0.000729555
0.000702076
0.000671409
0.000637748
0.000601517
0.000562398
0.000522711
0.000484419
0.000517719
0.000597006
0.000659879
0.000704356
0.000734627
0.000756025
0.000769341
0.000776221
0.000778227
0.000776972
0.000773997
0.000771745
0.000771728
0.000776593
0.000786652
0.000801511
0.00081566
0.000824989
0.000826003
0.000818464
0.000803567
0.000783111
0.000758408
0.000730269
0.000699093
0.000665016
0.000628282
0.000588595
0.000548121
0.000508994
0.000505278
0.00055404
0.000619606
0.000669978
0.00070564
0.000730912
0.000747603
0.000759644
0.000766572
0.000769901
0.000771317
0.000773608
0.000778667
0.000789154
0.000804745
0.000824268
0.000841409
0.000852276
0.000853737
0.000845953
0.000830487
0.000809372
0.000784041
0.000755384
0.000723859
0.000689579
0.000652626
0.000612664
0.000571574
0.000531822
0.000533732
0.000530408
0.00057855
0.000631831
0.00067365
0.000704079
0.000725054
0.00074001
0.000750504
0.000758357
0.000764493
0.000771862
0.000782491
0.000799032
0.000820365
0.000844471
0.000864407
0.000876598
0.000878411
0.000870407
0.000854463
0.000832815
0.00080699
0.000777945
0.000746196
0.000711854
0.000674885
0.000634871
0.000593327
0.000553092
0.000574401
0.00055331
0.000554121
0.000593674
0.000638445
0.000674532
0.000700762
0.000719626
0.000733088
0.000743717
0.000754358
0.000767065
0.000783875
0.000806796
0.000833994
0.000862535
0.000885025
0.000898335
0.000900428
0.000892233
0.000875911
0.000853845
0.00082766
0.000798353
0.000766493
0.000732203
0.000695341
0.000655501
0.000613544
0.000572952
0.000616658
0.000597457
0.000570363
0.000571125
0.000604231
0.000642624
0.000674206
0.000697857
0.00071509
0.000728545
0.000741982
0.000759878
0.000783001
0.000812855
0.000845982
0.000878752
0.000903535
0.000917777
0.000920086
0.000911743
0.000895138
0.000872778
0.000846361
0.000816915
0.000785047
0.000750897
0.000714239
0.00067459
0.000632413
0.000591579
0.000658395
0.000642997
0.000617732
0.000585563
0.000585006
0.000612665
0.000646112
0.000674474
0.000696137
0.000713101
0.000729207
0.000751
0.000780625
0.000817576
0.000856581
0.000893316
0.000920131
0.000935131
0.000937613
0.000929172
0.000912384
0.000889851
0.00086333
0.000833869
0.000802095
0.000768157
0.000731823
0.000692347
0.000650106
0.000609206
0.000699567
0.00068676
0.000665165
0.000633542
0.000598407
0.000596048
0.000620224
0.000650232
0.000676175
0.00069718
0.000716613
0.000741103
0.000777135
0.00082123
0.000865952
0.000906346
0.000934942
0.000950554
0.000953182
0.000944699
0.000927831
0.000905248
0.000878751
0.000849401
0.000817821
0.000784157
0.000748113
0.000708914
0.000666774
0.000625923
0.000740386
0.000728779
0.000709468
0.000680526
0.00063814
0.000604887
0.000604558
0.000627817
0.00065578
0.000680801
0.000704068
0.000731666
0.000772931
0.000824052
0.000874184
0.000917899
0.000948031
0.000964168
0.000966919
0.000958461
0.000941621
0.000919111
0.000892767
0.000863654
0.000832369
0.00079905
0.000763333
0.000724449
0.00068254
0.000641776
0.000780941
0.000769483
0.000751151
0.000724232
0.000686338
0.000637555
0.000607723
0.000612376
0.000636601
0.000664329
0.000691567
0.000722844
0.00076828
0.000826089
0.00088129
0.000927981
0.000959439
0.000976036
0.000978919
0.000970559
0.000953853
0.000931549
0.000905483
0.000876735
0.000845847
0.000812961
0.00077762
0.000739084
0.000697511
0.000656905
0.000821301
0.000809268
0.000790994
0.000765001
0.000729191
0.000679415
0.000630645
0.000609515
0.000621549
0.000648597
0.000679308
0.000714558
0.000763356
0.000827349
0.00088722
0.000936554
0.000969171
0.000986199
0.000989239
0.000981062
0.000964616
0.000942644
0.000917002
0.000888748
0.000858371
0.000825975
0.000791074
0.000752928
0.000711788
0.000671419
0.000861447
0.000848345
0.000829522
0.000803672
0.000768951
0.000721772
0.000665867
0.000622068
0.00061401
0.000635051
0.000667656
0.000706803
0.000758386
0.000827821
0.000891888
0.000943549
0.000977196
0.000994666
0.000997923
0.000990051
0.000974003
0.000952503
0.000927407
0.000899765
0.000870029
0.000838186
0.000803789
0.000766084
0.00072546
0.000685409
0.000901322
0.000886806
0.00086704
0.000840835
0.000806539
0.000761845
0.000705139
0.000647269
0.000616642
0.000625444
0.000657197
0.000699774
0.00075425
0.000827391
0.000895182
0.000948879
0.000983473
0.00100143
0.00100504
0.000997605
0.000982103
0.0009612
0.000936767
0.00090985
0.000880852
0.000849674
0.00081586
0.000778665
0.000738614
0.000698945
0.000940867
0.0009247
0.000903732
0.000876829
0.000842491
0.00079947
0.000743873
0.000679538
0.000629693
0.000621378
0.000648704
0.000693523
0.000750645
0.000826178
0.000897024
0.000952448
0.000987946
0.00100651
0.00101062
0.00100377
0.000988963
0.000968798
0.000945157
0.000919083
0.000890921
0.000860531
0.000827404
0.000790801
0.000751357
0.000712106
0.000980135
0.00096216
0.000939795
0.000911968
0.000877323
0.000835218
0.000780776
0.000714097
0.000650772
0.000623975
0.000643017
0.000688257
0.000747536
0.000824026
0.000897072
0.000954081
0.000990495
0.00100982
0.00101463
0.00100856
0.000994623
0.00097536
0.000952656
0.000927551
0.000900346
0.000870874
0.000838572
0.00080267
0.000763831
0.000725024
0.00101966
0.00099966
0.000975673
0.000946774
0.00091219
0.000870129
0.000816018
0.000748465
0.000676868
0.000633033
0.000640575
0.000684293
0.000744987
0.000820895
0.000895392
0.000953802
0.000991156
0.00101125
0.001017
0.00101195
0.000999092
0.000980936
0.000959348
0.00093535
0.000909254
0.000880863
0.000849567
0.000814502
0.00077622
0.000737846
0.00105983
0.00103844
0.00101254
0.000982967
0.000948616
0.000905175
0.00085021
0.00078189
0.000705405
0.000647679
0.000641816
0.000681947
0.00074307
0.000817294
0.000891658
0.000951069
0.000989413
0.00101066
0.00101752
0.00101377
0.00100229
0.000985488
0.000965236
0.000942563
0.000917782
0.000890674
0.000860585
0.000826543
0.000788757
0.000750744
0.0010981
0.00107725
0.00105328
0.00102344
0.000985584
0.000939818
0.000883527
0.000814464
0.000735102
0.000666725
0.000647491
0.000681472
0.000742054
0.000814793
0.000886052
0.000945691
0.000984844
0.00100727
0.00101553
0.00101327
0.00100341
0.000988423
0.000969908
0.000948934
0.000925815
0.000900316
0.000871733
0.000838955
0.0008017
0.00076395
0.00113478
0.00111587
0.00109171
0.00106044
0.00102022
0.000973073
0.000916244
0.00084705
0.000766255
0.000690249
0.000658177
0.000684506
0.000743109
0.000814228
0.00088308
0.000939997
0.000978445
0.00100134
0.00101103
0.00101044
0.0010022
0.000988881
0.00097249
0.000953694
0.000932705
0.000909272
0.000882651
0.000851555
0.000815334
0.000777948
0.0011648
0.00114536
0.00112092
0.00108936
0.00105096
0.00100537
0.000949962
0.000882121
0.000801651
0.000721043
0.000677664
0.000695218
0.000750945
0.000820084
0.000886321
0.000940724
0.000978329
0.00100133
0.00101176
0.00101257
0.00100575
0.000993661
0.000978094
0.000959949
0.000939618
0.000917191
0.000892623
0.000863669
0.000830088
0.000793569
0.00118708
0.0011675
0.00114507
0.00111773
0.00108386
0.00104212
0.000990442
0.000926502
0.000849627
0.000769172
0.000718114
0.000725786
0.000777193
0.000843139
0.000905921
0.000956955
0.000992479
0.0010145
0.0010249
0.00102632
0.00102035
0.00100903
0.000994008
0.000976288
0.000956383
0.000934475
0.000910406
0.000882993
0.000851328
0.000815501
0.00122567
0.00120681
0.0011858
0.00116157
0.00113267
0.00109737
0.00105363
0.000999353
0.000933885
0.000863625
0.000814484
0.000814377
0.000857581
0.000916061
0.000971265
0.00101526
0.00104517
0.00106359
0.00107183
0.00107207
0.00106549
0.00105386
0.00103855
0.00102057
0.00100045
0.000978347
0.000954128
0.000927043
0.000895964
0.000859628
0.0013022
0.00128743
0.0012728
0.00125774
0.00124103
0.00122082
0.00119525
0.00116293
0.00112389
0.00108138
0.00105097
0.0010498
0.001078
0.00111749
0.00115466
0.00118298
0.00120088
0.00121079
0.00121347
0.00121012
0.00120165
0.00118914
0.00117363
0.00115583
0.00113602
0.00111365
0.00108889
0.0010619
0.00103184
0.000996441
0.0015644
0.00156398
0.00156664
0.00156873
0.00156921
0.00156726
0.00156212
0.00155391
0.00154329
0.00152906
0.00151774
0.00151412
0.00151877
0.00152836
0.00153711
0.00154425
0.00154797
0.00155024
0.00155078
0.00155041
0.00154905
0.001547
0.00154436
0.00154121
0.00153694
0.00152767
0.00151463
0.00150146
0.00148817
0.00146913
0.000176229
0.000186689
0.000187251
0.000184186
0.000179011
0.000172739
0.000165973
0.000159089
0.000152291
0.000145747
0.000139515
0.000133729
0.000128429
0.000123899
0.000120268
0.000117802
0.000116266
0.000115333
0.000114585
0.000113645
0.000112041
0.000109288
0.00010509
9.96384e-05
9.30838e-05
8.60081e-05
8.21305e-05
0.000361945
0.000366417
9.33432e-05
0.000641188
0.000740508
0.000734887
0.000699591
0.000657983
0.000616741
0.000579035
0.000545656
0.000516399
0.000491301
0.000469663
0.000451987
0.000437609
0.00042826
0.000421962
0.000418613
0.000412191
0.00040255
0.000389822
0.000377095
0.000366782
0.000357263
0.000346086
0.000330939
0.000309471
0.000284281
0.000281673
0.000350881
0.000351393
0.000374325
0.00100389
0.00117348
0.00121316
0.00119335
0.00115043
0.00110032
0.00105025
0.00100371
0.00096173
0.000925533
0.000894831
0.000871226
0.00085387
0.000845634
0.000842012
0.000840964
0.000829772
0.000807376
0.000774665
0.000739111
0.000706471
0.000678613
0.000650927
0.000616731
0.000572132
0.000520101
0.000476474
0.000456821
0.000451172
0.000516628
0.00117878
0.00142008
0.00152249
0.00153147
0.00151006
0.00147028
0.00142464
0.00137947
0.00133773
0.0013022
0.00127392
0.00125582
0.00124711
0.00125039
0.00125794
0.00126477
0.00125242
0.00121859
0.00116571
0.00110552
0.00104718
0.000995045
0.000945112
0.00088923
0.000821071
0.000743119
0.000666654
0.00059799
0.000551278
0.000573158
0.00123367
0.00149039
0.0016431
0.00172025
0.00174112
0.00172483
0.00169474
0.00166128
0.0016296
0.00160434
0.0015884
0.00158609
0.00159646
0.00162043
0.00164686
0.00166574
0.00165456
0.00161033
0.00153838
0.00145463
0.00137126
0.00129506
0.00122302
0.00114628
0.00105697
0.000956731
0.000855543
0.000757622
0.000668924
0.000636959
0.00118135
0.00147489
0.00167579
0.0017991
0.00185924
0.00187724
0.00187208
0.00185823
0.0018444
0.00183738
0.00184216
0.00186477
0.00190316
0.00195653
0.00200807
0.00204061
0.00203119
0.00197678
0.00188656
0.00178076
0.00167429
0.00157574
0.00148325
0.00138774
0.00128032
0.00116129
0.0010401
0.00092356
0.000803664
0.000727622
0.00106544
0.0013609
0.00160344
0.0017814
0.00188619
0.00194235
0.00196849
0.00198087
0.00199139
0.00200951
0.00204214
0.00209846
0.002174
0.00226384
0.00234431
0.00239073
0.00238184
0.00231714
0.00220923
0.00208295
0.00195557
0.00183695
0.00172617
0.00161424
0.00149154
0.00135651
0.00121896
0.0010867
0.000947602
0.000837334
0.000923451
0.00119252
0.00145407
0.00167514
0.00182936
0.00193072
0.00199346
0.00203816
0.00207915
0.00212845
0.00219549
0.00229458
0.00241576
0.00254734
0.00265855
0.00271766
0.00270702
0.00263199
0.00250685
0.00236178
0.00221565
0.00207943
0.00195255
0.00182646
0.00169047
0.00154358
0.00139313
0.00124744
0.00109578
0.000959077
0.000799339
0.00100475
0.00126253
0.00150884
0.00170436
0.00184935
0.00195498
0.00203721
0.00211417
0.00220126
0.00230778
0.00246039
0.00263429
0.0028118
0.00295236
0.00302242
0.00300745
0.00292204
0.00278045
0.00261831
0.00245575
0.00230418
0.00216337
0.0020251
0.00187868
0.00172261
0.00156224
0.00140592
0.0012449
0.00108823
0.000725464
0.000843207
0.00106237
0.00130967
0.00153189
0.00171515
0.00186086
0.00198387
0.0021022
0.00223319
0.0023885
0.0026075
0.00283461
0.0030584
0.00322694
0.00330549
0.0032837
0.00318813
0.00303117
0.00285386
0.00267716
0.0025125
0.00235974
0.00221078
0.00205642
0.00189353
0.00172604
0.00156148
0.0013944
0.00122199
0.00070619
0.000752397
0.000893093
0.00110846
0.00133627
0.001545
0.0017265
0.0018886
0.00204804
0.00222898
0.00244057
0.00272435
0.00301848
0.00328934
0.00348286
0.00356681
0.00353619
0.00343103
0.00326025
0.00306987
0.00288131
0.00270579
0.00254302
0.00238496
0.00222443
0.0020568
0.00188397
0.00171355
0.00154289
0.00135822
0.000753729
0.000735507
0.000799508
0.000943508
0.00114559
0.00136067
0.0015668
0.00176348
0.00196305
0.0021924
0.0024684
0.00282973
0.00318909
0.00350586
0.00371971
0.00380589
0.00376525
0.00365155
0.0034689
0.00326781
0.0030697
0.00288539
0.00271397
0.00254881
0.0023836
0.00221291
0.00203677
0.00186161
0.00168934
0.0014953
0.000863713
0.000809555
0.000799798
0.000859743
0.00099632
0.0011878
0.00140054
0.00162186
0.00185789
0.00213341
0.00247709
0.00292369
0.00334747
0.00370811
0.00393628
0.0040218
0.00397118
0.00385041
0.00365833
0.00344904
0.00324384
0.0030521
0.00287334
0.00270317
0.00253479
0.00236239
0.00218458
0.00200621
0.00183312
0.00163198
0.0010443
0.000964979
0.00090695
0.000884288
0.000929253
0.00105886
0.00124993
0.00147904
0.0017442
0.00206295
0.0024803
0.0030048
0.00349307
0.00389211
0.00413062
0.00421313
0.00415438
0.00402825
0.00382949
0.00361487
0.00340439
0.00320696
0.00302268
0.00284903
0.00267883
0.00250584
0.00232775
0.00214786
0.00197389
0.00176737
0.00130235
0.00120592
0.00110631
0.00101984
0.000973329
0.00100715
0.00114139
0.00135355
0.00163324
0.00199296
0.00248151
0.00306959
0.00362567
0.00405573
0.00430046
0.00437876
0.00431463
0.00418535
0.00398296
0.00376584
0.00355193
0.00335074
0.00316316
0.00298736
0.00281651
0.00264395
0.00246677
0.00228671
0.002112
0.00190105
0.00161031
0.00150235
0.00138124
0.00124546
0.00112493
0.00105904
0.00109843
0.00126365
0.00153828
0.00193517
0.00247767
0.0031182
0.00374282
0.00419529
0.00444314
0.00451724
0.00445115
0.00432169
0.00411878
0.0039016
0.00368664
0.0034839
0.00329535
0.00311892
0.00294846
0.00277734
0.0026022
0.00242339
0.0022478
0.00203282
0.00196034
0.0018427
0.00170376
0.00153589
0.00136165
0.00121047
0.0011441
0.00122359
0.00147585
0.00189159
0.0024704
0.00315922
0.00384338
0.00430808
0.00455568
0.00462669
0.00456257
0.00443646
0.00423596
0.00402199
0.00380903
0.00360683
0.00341911
0.00324356
0.00307469
0.00290596
0.00273371
0.00255773
0.00238179
0.00216264
0.00233885
0.00221319
0.0020597
0.00187114
0.00165819
0.00144155
0.00127744
0.00125032
0.00144386
0.00185706
0.00246554
0.00319161
0.00392515
0.00438985
0.00463433
0.00470441
0.00464652
0.00452777
0.00433334
0.00412656
0.00391822
0.00371822
0.00353352
0.00336041
0.00319445
0.00302916
0.00286072
0.00268861
0.00251313
0.00229102
0.00272794
0.00259661
0.00243282
0.00223051
0.00199035
0.00172558
0.00148164
0.00135253
0.00144145
0.00183844
0.00246545
0.00322144
0.00396812
0.00443306
0.004674
0.00474625
0.00469913
0.00459192
0.00440917
0.00421249
0.00401148
0.00381627
0.00363539
0.00346692
0.00330546
0.00314483
0.00298144
0.00281547
0.00264023
0.0024168
0.00310623
0.0029726
0.00280363
0.00259286
0.00233517
0.00203613
0.00173159
0.00151096
0.00150177
0.00183615
0.00246661
0.00323654
0.00395511
0.00442904
0.00466747
0.0047456
0.0047139
0.00462321
0.00445725
0.00427388
0.00408423
0.00389716
0.00372201
0.00355809
0.00340201
0.00324784
0.00309124
0.00293315
0.00276229
0.0025391
0.00344955
0.00331792
0.00315014
0.00293822
0.00266952
0.00234741
0.00199982
0.00170696
0.0016086
0.00187167
0.00246112
0.00320356
0.00389697
0.00436783
0.00460365
0.00469154
0.00467988
0.00461
0.00446781
0.00430262
0.00412797
0.00395347
0.00378823
0.00363194
0.0034826
0.00333557
0.00318757
0.00304093
0.00287728
0.00265661
0.00372962
0.00360647
0.00344719
0.00323897
0.00296759
0.00263335
0.00225863
0.00191458
0.0017436
0.001913
0.00245356
0.00314123
0.00378698
0.0042322
0.00446485
0.00456662
0.00457903
0.00453408
0.00442278
0.00428311
0.00412961
0.0039731
0.00382211
0.00367765
0.00353879
0.00340265
0.00326791
0.00313378
0.00298038
0.00276491
0.00392193
0.00380885
0.00366645
0.00346829
0.00320322
0.00286721
0.00247944
0.00210261
0.00186815
0.0019381
0.00241446
0.00301785
0.00358398
0.00399515
0.00422617
0.00434686
0.00438456
0.00436851
0.00429379
0.00418691
0.0040629
0.00393268
0.00380393
0.0036786
0.00355677
0.00343667
0.00331755
0.00319786
0.00305858
0.002852
0.00402751
0.00391734
0.00378122
0.00359964
0.00335162
0.00302302
0.00263403
0.00223962
0.00195303
0.00192177
0.00228505
0.00279081
0.00326889
0.00363807
0.00386994
0.00401286
0.00407286
0.00408704
0.0040509
0.00398152
0.00389347
0.00379662
0.00369789
0.00359982
0.00350291
0.003406
0.00330852
0.00320916
0.00308986
0.00289736
0.00403205
0.00392776
0.00379985
0.00363025
0.00339808
0.00308275
0.00270431
0.00230904
0.00198716
0.00186464
0.00207104
0.00247028
0.00287254
0.0032055
0.00343231
0.0035926
0.00367188
0.00371118
0.00370715
0.0036706
0.00361514
0.0035492
0.00348062
0.00341219
0.00334422
0.00327533
0.00320421
0.00313007
0.00303848
0.00286807
0.00393085
0.00384393
0.00373032
0.00357334
0.00335153
0.00305827
0.00271048
0.002344
0.00202347
0.00184524
0.00191155
0.0021913
0.00252348
0.00282715
0.00304612
0.00320474
0.00328783
0.00333794
0.00334733
0.00332632
0.00328674
0.00323732
0.00318722
0.00313938
0.00309387
0.00304825
0.00299888
0.00294629
0.00287577
0.00273974
0.00375601
0.00369514
0.00360107
0.00346225
0.00326791
0.00302115
0.00273619
0.00243936
0.00217164
0.00199497
0.00197947
0.00215563
0.00240715
0.00266006
0.00285898
0.00299612
0.00306822
0.00311409
0.00312076
0.00309991
0.0030614
0.00301376
0.00296491
0.00291837
0.00287444
0.00283153
0.0027869
0.00273747
0.00267229
0.00255992
0.00357888
0.00355219
0.0034924
0.00339321
0.00324976
0.00306792
0.00286462
0.00265757
0.00246788
0.00232513
0.00228568
0.00238372
0.00255219
0.00273497
0.00288777
0.00299091
0.00304559
0.00308068
0.00308331
0.00306393
0.0030299
0.00298896
0.00294599
0.00290404
0.00286284
0.00282007
0.00277322
0.00271729
0.00264301
0.00253183
0.0034122
0.00340063
0.00338433
0.00334078
0.00326508
0.0031556
0.00303157
0.00290274
0.00278059
0.00267794
0.00263977
0.00268446
0.0027794
0.00289042
0.00298102
0.00304638
0.00308148
0.00310484
0.00310785
0.00309796
0.00307904
0.00305924
0.00303891
0.00302017
0.00300119
0.00297921
0.00295208
0.0029122
0.00285257
0.00276286
0.00330832
0.00331466
0.00331739
0.00330176
0.00326714
0.00321542
0.0031467
0.003071
0.0029987
0.00293709
0.00290283
0.00290949
0.00294494
0.0029924
0.00303124
0.00306303
0.0030811
0.00309224
0.00309629
0.00309694
0.00309803
0.00309867
0.00310354
0.00311115
0.00311952
0.00312602
0.00313203
0.0031266
0.00310999
0.00307647
0.000203772
0.000214752
0.000213979
0.000210163
0.000204243
0.000197174
0.000189619
0.000182
0.00017455
0.00016746
0.000160769
0.000154615
0.000148984
0.000144143
0.00014012
0.000137102
0.000134716
0.000132967
0.000131998
0.000131428
0.000130013
0.00012642
0.000119815
0.000109947
9.75041e-05
8.26214e-05
7.61799e-05
0.000361922
8.95174e-05
9.86677e-05
0.000797683
0.00095097
0.000979787
0.000950657
0.000903372
0.000854957
0.000809986
0.000769871
0.000734299
0.000703047
0.000674457
0.000649035
0.000624304
0.000602896
0.000581189
0.00056001
0.000532514
0.000508321
0.000492457
0.0004868
0.000486976
0.000485186
0.000469484
0.000436787
0.000386299
0.000330126
0.000320505
0.000375199
0.00033438
0.00041881
0.00125355
0.00151917
0.00162576
0.00163807
0.00160576
0.00155727
0.00150476
0.00145383
0.00140627
0.00136352
0.00132424
0.00128976
0.0012557
0.00122521
0.0011914
0.0011531
0.00109694
0.00104085
0.000993466
0.00095972
0.000937077
0.00091406
0.000878823
0.000812743
0.000713861
0.000604636
0.0005399
0.000506746
0.000493168
0.000620847
0.00152903
0.00188752
0.00205012
0.00210732
0.002111
0.00208389
0.0020441
0.00200086
0.00195883
0.0019215
0.00188907
0.00186342
0.00183815
0.00181393
0.00178048
0.00173399
0.00165624
0.00157083
0.00148922
0.00142174
0.00136868
0.00132062
0.00125813
0.0011605
0.00102059
0.000861575
0.000742128
0.000653777
0.000608397
0.000718425
0.00165683
0.00201317
0.00225237
0.00239468
0.00244488
0.00245334
0.00243779
0.0024138
0.00238932
0.00237014
0.00235847
0.00235634
0.00235338
0.00234683
0.00232285
0.00227416
0.00217921
0.00206532
0.00195003
0.00184938
0.0017656
0.00169073
0.00160409
0.00148063
0.00130977
0.00111148
0.000946301
0.00081722
0.000735991
0.000798224
0.00170932
0.00205242
0.00232515
0.00251129
0.00262731
0.00268813
0.00270941
0.00271322
0.00271622
0.00272598
0.00274721
0.00278055
0.00281223
0.00283242
0.00282266
0.00277442
0.002663
0.00252017
0.00237158
0.0022393
0.00212689
0.0020273
0.00192006
0.00177669
0.00158369
0.00135662
0.00115458
0.000994711
0.000882434
0.00090186
0.00167352
0.00201599
0.00232106
0.00254912
0.00270902
0.00281145
0.00287326
0.00291566
0.00295549
0.00300401
0.00307042
0.00315058
0.00322677
0.00328023
0.00328697
0.00323895
0.00310945
0.00293664
0.00275544
0.00259329
0.00245505
0.00233373
0.00220929
0.00205135
0.00184327
0.0015959
0.00136564
0.00118127
0.00104472
0.00103486
0.00156897
0.00189077
0.00221277
0.00248285
0.00269339
0.00284084
0.0029493
0.00303513
0.00311989
0.00321582
0.00334065
0.00347839
0.00360678
0.00369852
0.00372191
0.00367067
0.00352065
0.00331703
0.00310437
0.00291464
0.00275354
0.00261361
0.0024751
0.00230634
0.00208904
0.00182895
0.00157714
0.00137297
0.00121887
0.00118854
0.00142389
0.00170921
0.00203653
0.00233836
0.00258866
0.00278404
0.00294585
0.00308219
0.00322033
0.00337454
0.00356982
0.00377271
0.00396039
0.0040921
0.0041305
0.00407056
0.00389809
0.00366381
0.00342156
0.00320701
0.00302611
0.00287054
0.00272046
0.00254375
0.00232166
0.00205514
0.0017888
0.00156827
0.00140185
0.00135673
0.0012794
0.00150417
0.00181469
0.00213654
0.00242313
0.00266395
0.00287284
0.00306521
0.00326593
0.00348878
0.00375445
0.00403974
0.00429307
0.00446338
0.00451358
0.0044392
0.0042424
0.00397922
0.00371025
0.00347424
0.00327656
0.00310835
0.00294774
0.00276572
0.00254187
0.00227441
0.00200126
0.00176643
0.00159165
0.00153556
0.00116372
0.00131478
0.00158017
0.0019
0.00221287
0.00249498
0.00275222
0.0030009
0.00326571
0.00356678
0.00392208
0.00429148
0.00460543
0.00481216
0.00486977
0.00477641
0.00455422
0.00426546
0.00397385
0.00372023
0.00350881
0.00333045
0.00316072
0.00297485
0.00275148
0.00248769
0.00221204
0.00196743
0.00178668
0.00172207
0.00110055
0.00117649
0.00137642
0.00166278
0.00198084
0.00229407
0.00259718
0.00290372
0.00323764
0.00361702
0.00407734
0.00453424
0.00489848
0.00513655
0.00519598
0.00508115
0.00483467
0.00452527
0.00421589
0.00394884
0.00372664
0.00353984
0.00336263
0.00317397
0.00295261
0.00269412
0.00241979
0.0021709
0.00198527
0.00191381
0.00110611
0.00112074
0.00124583
0.00146974
0.00176067
0.00208516
0.00242477
0.00278694
0.00319221
0.00365841
0.00422319
0.00476223
0.00517211
0.00543366
0.00548953
0.00535205
0.00508545
0.00476151
0.00443999
0.00416361
0.00393373
0.00373898
0.00355615
0.00336579
0.00314735
0.00289482
0.00262502
0.00237566
0.00218696
0.00210895
0.00120855
0.00116964
0.00121508
0.00137045
0.00159727
0.00190197
0.00225794
0.00266635
0.00313958
0.00370716
0.00435968
0.00496526
0.0054286
0.00569873
0.00574665
0.00558776
0.00530836
0.00497692
0.00464928
0.00436758
0.00413242
0.00393058
0.00374374
0.00355267
0.00333745
0.00309197
0.00282959
0.00258278
0.00239138
0.00230604
0.0014253
0.00135419
0.00133429
0.00138425
0.00153679
0.00178704
0.00212534
0.00256038
0.00309812
0.00376412
0.00447939
0.00514218
0.00565533
0.00592455
0.00596272
0.00578686
0.00550486
0.00517331
0.00484595
0.0045631
0.004324
0.00411651
0.0039273
0.00373627
0.00352573
0.00328775
0.00303483
0.00279338
0.00259827
0.00250369
0.00176101
0.00166685
0.00160352
0.00157248
0.00160695
0.00175447
0.00205732
0.00249299
0.00308855
0.0038117
0.00457073
0.00529788
0.00583148
0.00610312
0.0061326
0.00594767
0.00567505
0.005351
0.00503051
0.00475033
0.0045091
0.00429762
0.00410761
0.00391834
0.00371365
0.00348505
0.00324199
0.00300742
0.00280713
0.0027003
0.0021982
0.00208667
0.00198758
0.00189371
0.00183016
0.00184891
0.00203791
0.00246078
0.00307857
0.00383784
0.00464467
0.00542613
0.00596021
0.00622713
0.00625083
0.0060678
0.00581654
0.00550781
0.00520085
0.00492709
0.00468661
0.00447317
0.0042831
0.00409783
0.00390026
0.00368196
0.0034504
0.00322333
0.00301737
0.00289323
0.00269821
0.00257153
0.00244207
0.00229914
0.00215821
0.00207083
0.00212622
0.00245185
0.00306872
0.00385768
0.00469536
0.00550349
0.00602903
0.00628781
0.00631105
0.00614253
0.00592382
0.00563814
0.00535148
0.00508828
0.00485248
0.00464019
0.00444916
0.00426822
0.00408074
0.00387432
0.0036544
0.00343534
0.00322547
0.00308009
0.00321384
0.00307264
0.00291723
0.00273629
0.00253783
0.00236366
0.00230522
0.00250714
0.00307122
0.00386751
0.00473075
0.0054888
0.00602387
0.00627527
0.00630543
0.00616438
0.00598653
0.00573186
0.00547217
0.00522532
0.00499828
0.00479163
0.00460398
0.004426
0.00424312
0.0040487
0.00384195
0.00363123
0.00342195
0.00325685
0.00370139
0.00354607
0.00336902
0.00315893
0.00291883
0.00268055
0.0025307
0.00260005
0.00307705
0.00383347
0.00466219
0.00541804
0.00593291
0.00617863
0.00622409
0.00612239
0.00598853
0.00577355
0.00554669
0.00532265
0.0051111
0.0049152
0.00473481
0.00456328
0.00438855
0.00420394
0.00400609
0.00380203
0.00359889
0.0034197
0.00412585
0.00395751
0.00376312
0.0035313
0.0032614
0.00297733
0.00275327
0.00271733
0.00309742
0.00376507
0.00454318
0.00525605
0.00573982
0.00598634
0.00605537
0.00600125
0.00591097
0.00574193
0.00555222
0.00535708
0.00516687
0.00498758
0.00482079
0.00466128
0.00449855
0.00432596
0.0041384
0.00394269
0.0037462
0.00356024
0.00446067
0.00428192
0.0040749
0.00382771
0.00353715
0.00322062
0.00294018
0.00282114
0.00304739
0.00365667
0.00434714
0.00498253
0.00543481
0.00569073
0.00578996
0.00578623
0.00573666
0.00561481
0.00546353
0.00529973
0.00513694
0.00498106
0.00483458
0.00469344
0.0045485
0.00439269
0.00421909
0.00403366
0.00384794
0.003662
0.0046858
0.00450194
0.00428829
0.00403228
0.00372919
0.00339093
0.00306793
0.00287087
0.00294032
0.00342949
0.00403712
0.00460276
0.00503052
0.00530041
0.00543338
0.0054768
0.00546211
0.00538304
0.0052703
0.00513974
0.0050058
0.00487568
0.00475272
0.00463393
0.00451122
0.00437714
0.00422637
0.00405632
0.00388181
0.0037005
0.00479004
0.00460962
0.00439725
0.00414107
0.00383512
0.00348697
0.00313657
0.00287248
0.0028141
0.00312666
0.00364693
0.00415832
0.00457652
0.0048649
0.00502683
0.00510753
0.0051205
0.00507706
0.00499672
0.00489506
0.00478605
0.00467809
0.00457571
0.00447717
0.00437575
0.00426409
0.00413721
0.00399272
0.00383039
0.00365247
0.00477531
0.00461066
0.00441204
0.00416874
0.00387442
0.00353472
0.00318176
0.00288324
0.00273791
0.00288616
0.00328639
0.00374895
0.00415726
0.0044644
0.00464651
0.00474907
0.0047788
0.00475889
0.00470037
0.00461818
0.00452545
0.00443091
0.00434029
0.00425332
0.00416493
0.00406862
0.00395948
0.00383536
0.00369361
0.00351435
0.00466856
0.00453566
0.00436811
0.00415613
0.00389331
0.00358712
0.00326573
0.00297936
0.0027989
0.00283064
0.00310891
0.00349598
0.00386994
0.00417707
0.00436462
0.00446932
0.00450368
0.00449426
0.00444738
0.00437629
0.00429302
0.00420554
0.00411964
0.00403643
0.00395236
0.00386192
0.00376029
0.00364532
0.00351298
0.00333941
0.00453603
0.00444535
0.00432628
0.00416277
0.00394851