/*--------------------------------*- C++ -*----------------------------------*\
| =========                 |                                                 |
| \\      /  F ield         | OpenFOAM: The Open Source CFD Toolbox           |
|  \\    /   O peration     | Version:  5.0                                   |
|   \\  /    A nd           | Web:      www.OpenFOAM.org                      |
|    \\/     M anipulation  |                                                 |
\*---------------------------------------------------------------------------*/
FoamFile
{
    version     2.0;
    format      ascii;
    class       volScalarField;
    location    "1200/air";
    object      epsilon;
}
// * * * * * * * * * * * * * * * * * * * * * * * * * * * * * * * * * * * * * //

dimensions      [0 2 -3 0 0 0 0];

internalField   nonuniform List<scalar> 
243000
(
2.15751
2.88864
3.29561
3.57529
3.73165
3.78938
3.77012
3.69075
3.56121
3.3904
3.18204
2.94554
2.68795
2.43262
2.19755
2.00981
1.87434
1.81373
1.72195
1.62111
1.50252
1.36015
1.28345
1.091
0.987913
0.86274
0.736863
0.146211
0.122999
0.495006
1.10337
1.40858
1.52664
1.57401
1.56958
1.53386
1.47725
1.40719
1.32838
1.2443
1.15641
1.06861
0.9833
0.90758
0.845213
0.803357
0.778932
0.766782
0.751312
0.726225
0.688509
0.638639
0.580797
0.515048
0.450313
0.386784
0.327377
0.258601
0.197499
0.193977
1.31892
1.70008
1.8644
1.94148
1.94958
1.9158
1.85397
1.7739
1.68163
1.58237
1.47895
1.37728
1.2809
1.19925
1.13675
1.10205
1.08793
1.08234
1.06694
1.0333
0.978888
0.906818
0.821832
0.728908
0.633748
0.540188
0.452548
0.362292
0.276468
0.226826
1.30198
1.75447
1.99953
2.12634
2.16665
2.15412
2.1049
2.0307
1.93951
1.83844
1.73205
1.62851
1.5328
1.4568
1.40553
1.38863
1.39336
1.40079
1.38755
1.3454
1.27357
1.17858
1.06751
0.946838
0.822446
0.699232
0.583138
0.4707
0.365632
0.289929
1.14533
1.63596
1.94808
2.13877
2.23441
2.26121
2.23918
2.18434
2.10684
2.01572
1.91763
1.82324
1.73916
1.67967
1.65005
1.66023
1.69011
1.71424
1.70493
1.65443
1.5651
1.44748
1.31128
1.16407
1.01227
0.861513
0.718418
0.582715
0.459797
0.363252
0.939167
1.41365
1.77416
2.02365
2.17621
2.25189
2.26938
2.24518
2.19214
2.12106
2.04097
1.96526
1.90249
1.86926
1.87078
1.91577
1.97547
2.01859
2.01405
1.95532
1.84887
1.70931
1.5492
1.37735
1.20054
1.02483
0.856846
0.697481
0.556694
0.441257
0.760161
1.18639
1.53557
1.81454
2.01838
2.14583
2.21
2.22554
2.20548
2.16255
2.10869
2.0598
2.0267
2.0282
2.06966
2.15555
2.24825
2.31156
2.31205
2.24519
2.12219
1.96169
1.77898
1.58437
1.38512
1.18702
0.996555
0.81545
0.655699
0.522552
0.630389
0.963872
1.30501
1.58941
1.80658
1.97095
2.07982
2.13869
2.15773
2.14973
2.12793
2.11252
2.11611
2.16036
2.24881
2.38043
2.50803
2.59193
2.59726
2.52242
2.3835
2.20327
1.9994
1.78385
1.56436
1.34643
1.13589
0.934869
0.75609
0.606231
0.593903
0.771345
1.07848
1.36602
1.59954
1.78014
1.90774
2.00347
2.0615
2.09141
2.10638
2.12916
2.17581
2.26957
2.41032
2.5913
2.75481
2.85891
2.86873
2.78613
2.63211
2.43346
2.21006
1.97525
1.73746
1.50193
1.27358
1.05452
0.857429
0.691592
0.705899
0.683562
0.878439
1.1441
1.38999
1.59006
1.73946
1.85174
1.93393
1.99856
2.05153
2.1163
2.21048
2.35889
2.55641
2.789
2.98871
3.112
3.12579
3.03583
2.86781
2.65221
2.41096
2.1586
1.90425
1.65302
1.40895
1.17368
0.959307
0.77807
0.879706
0.787794
0.778959
0.950023
1.18207
1.39694
1.5695
1.70243
1.80236
1.88497
1.97168
2.07891
2.22526
2.43172
2.68919
2.97441
3.20958
3.35068
3.36796
3.27113
3.09042
2.85948
2.60221
2.33411
2.06494
1.79976
1.54166
1.29226
1.06097
0.865089
1.08662
0.990411
0.86182
0.853118
1.00335
1.2073
1.39691
1.55207
1.67279
1.77227
1.87698
2.02302
2.22093
2.49065
2.8103
3.14802
3.41714
3.57443
3.59468
3.49172
3.29975
3.05528
2.78393
2.50197
2.21969
1.94216
1.67158
1.40905
1.16222
0.952431
1.32037
1.23181
1.09428
0.931123
0.916903
1.04761
1.22921
1.40086
1.54327
1.66235
1.78249
1.95511
2.20421
2.5383
2.92088
3.30993
3.61092
3.78261
3.80546
3.6972
3.49559
3.23956
2.95618
2.66233
2.3687
2.0803
1.79899
1.524
1.26294
1.04031
1.58172
1.49789
1.36274
1.17887
0.989074
0.969173
1.08841
1.25522
1.4144
1.55402
1.6928
1.88105
2.17843
2.57668
3.02154
3.45974
3.79017
3.97452
3.9997
3.88717
3.67769
3.41218
3.11894
2.81531
2.5121
2.21423
1.92293
1.63688
1.36312
1.12872
1.87292
1.78726
1.65015
1.45782
1.2046
1.01938
1.01103
1.13062
1.2906
1.44776
1.60671
1.81168
2.14706
2.60745
3.11235
3.59664
3.9538
4.14945
4.17676
4.06116
3.84575
3.573
3.27217
2.96094
2.64999
2.34405
2.04383
1.74783
1.46275
1.21713
2.19577
2.10124
1.95545
1.75371
1.4939
1.19624
1.03079
1.05083
1.18134
1.34608
1.52412
1.74884
2.11249
2.63147
3.19279
3.71944
4.10053
4.30639
4.33594
4.21861
3.99932
3.72173
3.41568
3.09915
2.7823
2.47005
2.16202
1.85698
1.56186
1.30578
2.55206
2.44199
2.28078
2.06388
1.78821
1.44707
1.15456
1.03823
1.10045
1.25374
1.44614
1.69158
2.07615
2.64824
3.26164
3.82653
4.22894
4.44426
4.47637
4.35889
4.13805
3.85812
3.54945
3.22997
2.90929
2.59206
2.27754
1.96449
1.66056
1.39486
2.94293
2.81092
2.62819
2.39042
2.09423
1.73287
1.35963
1.10539
1.06177
1.17781
1.37474
1.63973
2.03957
2.65746
3.3174
3.91601
4.33734
4.56178
4.59726
4.4817
4.26193
3.98232
3.67347
3.3533
3.03099
2.71025
2.39054
2.07054
1.75901
1.48456
3.36891
3.20878
2.99902
2.73529
2.41416
2.03518
1.61328
1.24563
1.07586
1.12586
1.31285
1.59374
2.00793
2.6581
3.35828
3.98594
4.42406
4.65772
4.69846
4.58707
4.3711
4.09432
3.78767
3.4691
3.14724
2.82479
2.50134
2.17558
1.85742
1.57503
3.83035
3.6361
3.39414
3.09975
2.74938
2.34899
1.89165
1.44042
1.14522
1.10416
1.2642
1.55381
1.98116
2.65014
3.38273
4.03436
4.48744
4.73125
4.77928
4.67473
4.46537
4.19413
3.89223
3.57755
3.25812
2.93606
2.61053
2.2803
1.95628
1.66651
4.3287
4.09452
3.81517
3.48573
3.10271
2.67636
2.18532
1.67006
1.26296
1.11744
1.23214
1.52085
1.95861
2.63293
3.38757
4.05868
4.52532
4.78084
4.83865
4.74429
4.54458
4.28191
3.98751
3.67919
3.36435
3.04484
2.71922
2.38597
2.05646
1.75974
4.87317
4.59105
4.26768
3.89868
3.48528
3.02419
2.49277
1.92127
1.41951
1.16545
1.21843
1.49651
1.94051
2.60587
3.37203
4.05834
4.53693
4.80384
4.87516
4.79469
4.60831
4.35775
4.07397
3.77459
3.46694
3.15244
2.82911
2.4945
2.15933
1.85569
5.47005
5.14513
4.76901
4.36131
3.91864
3.40301
2.81769
2.18869
1.60508
1.24637
1.22471
1.48241
1.92716
2.5717
3.33313
4.02698
4.51647
4.79867
4.88524
4.82316
4.65496
4.4208
4.15141
3.86443
3.56716
3.26059
2.94214
2.60824
2.26684
1.95571
6.08242
5.74135
5.36548
4.9212
4.39341
3.80725
3.16052
2.47233
1.81491
1.35733
1.25617
1.47993
1.92045
2.54826
3.27307
3.96202
4.4571
4.75329
4.85933
4.81821
4.67314
4.46281
4.21416
3.94532
3.66348
3.36939
3.05959
2.72898
2.38152
2.06185
6.71077
6.38
5.97337
5.47298
4.87122
4.22421
3.52327
2.77972
2.05408
1.50356
1.31733
1.49951
1.92945
2.54273
3.23818
3.88937
4.37006
4.66974
4.79514
4.77835
4.65679
4.4712
4.25022
4.00713
3.74784
3.47269
3.17757
2.85528
2.50637
2.17834
7.25703
6.89846
6.46454
5.93148
5.32367
4.65754
3.92536
3.13816
2.35065
1.7113
1.4346
1.56982
1.9909
2.59674
3.27147
3.89657
4.367
4.66877
4.80533
4.80883
4.70692
4.53612
4.32392
4.08627
3.83153
3.56535
3.28784
2.9801
2.64593
2.3132
7.67923
7.30407
6.88952
6.40571
5.83827
5.18592
4.44754
3.63489
2.79737
2.07515
1.70231
1.78217
2.20358
2.8173
3.48767
4.09673
4.55534
4.85238
4.99312
5.00638
4.91409
4.74897
4.53771
4.29793
4.03982
3.76948
3.487
3.18324
2.85422
2.51076
8.45105
8.06521
7.6494
7.18761
6.66117
6.05353
5.35289
4.56118
3.7157
2.93705
2.47699
2.50483
2.94508
3.59557
4.27945
4.87515
5.30583
5.57989
5.70173
5.69853
5.58949
5.40517
5.17107
4.90591
4.6212
4.32243
4.01071
3.68068
3.32478
2.93907
10.1295
9.78677
9.45454
9.12005
8.75778
8.33221
7.81392
7.19061
6.48444
5.77474
5.31369
5.32602
5.79135
6.46181
7.12605
7.65487
7.99817
8.18921
8.23702
8.16355
7.98969
7.74039
7.43988
7.10569
6.74654
6.35702
5.9439
5.51457
5.06175
4.56149
17.5301
17.5157
17.6033
17.6716
17.6848
17.6148
17.4376
17.1595
16.8069
16.3474
15.9947
15.893
16.0567
16.372
16.656
16.8858
17.0037
17.074
17.0879
17.0722
17.0245
16.955
16.8666
16.7624
16.6233
16.3275
15.9126
15.4972
15.0926
14.5229
3.94909
5.46254
6.39634
7.03243
7.41622
7.60163
7.629
7.52967
7.32369
7.03199
6.66753
6.25863
5.82045
5.40142
5.0248
4.72416
4.46762
4.21687
3.93406
3.59433
3.18043
2.6907
2.15953
1.63906
1.18107
0.88176
0.739313
0.149182
0.129207
0.593789
2.73104
3.32289
3.75043
4.0285
4.17347
4.21811
4.18317
4.08734
3.94602
3.77181
3.57557
3.37037
3.16701
2.98196
2.82944
2.71759
2.62698
2.53123
2.41682
2.26402
2.06616
1.80621
1.49851
1.17527
0.872709
0.610619
0.413691
0.284896
0.356728
0.275434
2.44269
2.92306
3.26435
3.47804
3.58536
3.61377
3.5801
3.49769
3.37935
3.23639
3.0789
2.91906
2.76694
2.6366
2.53766
2.47564
2.42721
2.36752
2.28602
2.17038
2.01047
1.78943
1.51919
1.22698
0.94093
0.680419
0.479027
0.351397
0.349861
0.3258
2.21543
2.67525
3.00977
3.21382
3.31865
3.35057
3.32757
3.26145
3.16377
3.04488
2.91439
2.78465
2.66531
2.5704
2.50764
2.47936
2.45781
2.4179
2.34925
2.24443
2.09367
1.8859
1.62865
1.34392
1.05649
0.786625
0.568715
0.417733
0.356629
0.315742
1.94046
2.40657
2.76454
2.98254
3.09851
3.14208
3.1338
3.08606
3.01034
2.91628
2.81309
2.71338
2.62634
2.56643
2.53836
2.54149
2.54429
2.52115
2.46114
2.35989
2.20962
2.0044
1.75107
1.46822
1.17756
0.899572
0.665567
0.4923
0.394883
0.334115
1.55666
2.06241
2.46333
2.71793
2.8578
2.91963
2.93069
2.90493
2.8539
2.78725
2.71421
2.64765
2.59632
2.57391
2.5824
2.61787
2.64443
2.63789
2.58568
2.48534
2.33228
2.12517
1.87183
1.58888
1.29556
1.01179
0.765067
0.573034
0.451085
0.373437
1.14946
1.64347
2.07304
2.39367
2.57437
2.66467
2.70012
2.7009
2.67809
2.64202
2.60247
2.57275
2.56116
2.57958
2.62689
2.69571
2.74614
2.75617
2.71177
2.61148
2.4542
2.24319
1.98783
1.70386
1.40876
1.12154
0.86523
0.658305
0.517202
0.425407
0.82033
1.25471
1.67715
2.03427
2.25147
2.3797
2.44286
2.47284
2.48122
2.47874
2.47596
2.48658
2.5177
2.58047
2.66834
2.7711
2.84555
2.8717
2.83518
2.73478
2.57253
2.35696
2.09848
1.813
1.51716
1.22724
0.964091
0.745724
0.588948
0.48407
0.634772
0.921936
1.3122
1.67983
1.93477
2.09012
2.17371
2.2301
2.26903
2.30115
2.33708
2.39066
2.46713
2.57679
2.70661
2.84322
2.94146
2.9829
2.95407
2.85349
2.68649
2.46578
2.2038
1.91663
1.62005
1.3288
1.0611
0.833769
0.664188
0.547436
0.576555
0.704235
1.00115
1.34665
1.62363
1.81396
1.92314
1.99358
2.0524
2.11609
2.19073
2.28878
2.41249
2.571
2.74277
2.91246
3.03361
3.08917
3.06746
2.96649
2.79512
2.56921
2.30378
2.01541
1.7182
1.42667
1.1561
0.921898
0.741311
0.614542
0.611718
0.638752
0.786109
1.05644
1.33168
1.54559
1.68734
1.77883
1.84774
1.93306
2.04297
2.18464
2.35756
2.56515
2.77817
2.97953
3.12214
3.19022
3.17467
3.07291
2.89736
2.66666
2.39824
2.10921
1.81208
1.52113
1.24938
1.00995
0.820193
0.685152
0.705843
0.691725
0.718733
0.854835
1.07826
1.29677
1.46294
1.58031
1.66481
1.76445
1.90051
2.08301
2.30575
2.56103
2.81404
3.04514
3.20728
3.28592
3.27515
3.17209
2.99248
2.75771
2.48748
2.1982
1.90206
1.61249
1.34062
1.09805
0.900964
0.759282
0.84902
0.82472
0.798382
0.799379
0.908722
1.08537
1.25816
1.39634
1.50071
1.61525
1.77028
1.98882
2.26019
2.55997
2.85151
3.10998
3.28931
3.3762
3.36853
3.26347
3.07984
2.84243
2.57176
2.28281
1.98861
1.70118
1.43009
1.18587
0.983654
0.836805
1.04408
1.01448
0.970396
0.903149
0.872422
0.948727
1.08787
1.23039
1.35566
1.48598
1.65828
1.90633
2.22384
2.56496
2.8916
3.17474
3.36853
3.46126
3.45475
3.34666
3.15964
2.92063
2.6506
2.36331
2.07214
1.78752
1.51796
1.27314
1.06818
0.917466
1.29737
1.26001
1.19886
1.09931
0.981554
0.92333
0.978512
1.09641
1.23022
1.37625
1.56444
1.83787
2.19637
2.57645
2.93515
3.24024
3.44556
3.54177
3.5343
3.42205
3.23215
2.99252
2.72407
2.43999
2.15292
1.87176
1.60444
1.36
1.15416
1.0008
1.58246
1.53296
1.46532
1.34547
1.18392
1.02228
0.954462
1.0079
1.12763
1.28403
1.4901
1.78651
2.17775
2.59535
2.98323
3.3078
3.52179
3.61906
3.6084
3.49086
3.29793
3.05877
2.793
2.51339
2.23124
1.95422
1.68981
1.44666
1.24135
1.08639
1.90233
1.8363
1.7546
1.62092
1.43576
1.21085
1.0301
0.980443
1.05657
1.21116
1.43569
1.75088
2.1679
2.62196
3.03758
3.3797
3.59981
3.69581
3.67958
3.55514
3.36061
3.1223
2.85921
2.58452
2.30785
2.0356
1.77465
1.53347
1.32966
1.17404
2.25855
2.17318
2.07326
1.92527
1.72084
1.45748
1.18902
1.02512
1.02516
1.16216
1.39718
1.72858
2.16613
2.6582
3.10162
3.46021
3.68441
3.77708
3.75234
3.62282
3.42581
3.18623
2.92545
2.65556
2.3845
2.11728
1.86011
1.62137
1.41956
1.26402
2.65522
2.54941
2.42898
2.26324
2.03804
1.74414
1.4111
1.14017
1.04042
1.13762
1.37398
1.72021
2.18069
2.70987
3.18206
3.55726
3.78414
3.87169
3.84057
3.7032
3.49971
3.25697
2.99794
2.73136
2.46505
2.20239
1.94874
1.71297
1.51321
1.35727
3.09987
2.97394
2.83175
2.64455
2.39588
2.06986
1.68282
1.31877
1.11379
1.1407
1.36795
1.73388
2.22544
2.78824
3.29205
3.68595
3.91508
3.99846
3.9569
3.80896
3.59534
3.34584
3.08567
2.82119
2.55778
2.29768
2.04616
1.81333
1.61332
1.45581
3.60495
3.4606
3.29714
3.08992
2.81206
2.44837
2.00771
1.55926
1.24784
1.19326
1.40191
1.79442
2.31637
2.9155
3.45794
3.8759
4.10788
4.18645
4.13091
3.96688
3.73719
3.47443
3.20564
2.9369
2.67182
2.41125
2.15979
1.92783
1.72553
1.56421
4.1927
4.03245
3.85065
3.62376
3.31613
2.91083
2.41155
1.87834
1.45772
1.31029
1.49575
1.91901
2.49176
3.13996
3.73543
4.1879
4.42518
4.49805
4.4223
4.23186
3.97325
3.68485
3.39462
3.10905
2.83157
2.56274
2.30674
2.07081
1.86171
1.69242
4.90404
4.73365
4.54664
4.30026
3.96526
3.51862
2.95682
2.33162
1.79239
1.54146
1.69454
2.17066
2.83269
3.57469
4.25094
4.75631
5.00594
5.07019
4.9623
4.72644
4.41784
4.07946
3.74064
3.41226
3.1
2.8045
2.52816
2.27515
2.04824
1.86201
5.82773
5.66195
5.47499
5.21939
4.87022
4.39549
3.7792
3.05931
2.38752
2.01659
2.13585
2.70437
3.53069
4.45833
5.30568
5.9063
6.18531
6.23194
6.05805
5.72822
5.31566
4.86898
4.42447
4.00049
3.60593
3.24239
2.91061
2.61009
2.34099
2.11624
7.18448
7.03289
6.85086
6.61112
6.28533
5.82526
5.19594
4.41101
3.61389
3.11275
3.20777
3.95301
5.0755
6.34707
7.51339
8.29765
8.63127
8.6427
8.3432
7.82969
7.20112
6.52104
5.85119
5.22123
4.64443
4.12312
3.65628
3.24219
2.87423
2.5601
9.47131
9.35514
9.22973
9.07304
8.85174
8.5107
7.98855
7.26927
6.4651
5.90953
6.04834
7.11633
8.75514
10.6056
12.2915
13.3558
13.7525
13.6606
13.1003
12.2241
11.17
10.0391
8.9291
7.88598
6.93227
6.07066
5.29882
4.61751
4.00877
3.48239
13.9038
13.8967
13.9291
13.9904
14.0737
14.1028
13.9753
13.6565
13.23
12.9835
13.4579
15.0601
17.4271
20.0586
22.3708
23.7455
24.1811
23.8774
22.8649
21.3713
19.5951
17.6907
15.7893
13.9737
12.282
10.7185
9.29052
7.99655
6.81012
5.7615
23.0958
23.2614
23.6235
24.1522
24.8656
25.6304
26.2624
26.7374
27.2117
27.9395
29.3135
31.6365
34.6633
37.8646
40.4709
41.9539
42.3847
41.8581
40.3965
38.2779
35.732
32.9267
30.0334
27.1819
24.4119
21.711
19.1138
16.6316
14.2392
12.0244
37.3624
37.7268
38.742
40.0768
41.6797
43.1504
44.2806
45.1377
46.1962
47.8816
50.3097
53.3043
56.4226
59.3407
61.2798
62.2261
62.4848
61.9448
60.5744
58.5774
56.1267
53.2924
50.3011
47.2716
44.1536
40.8855
37.4994
33.9896
30.3487
26.7439
42.389
42.8283
44.3429
46.011
47.2332
47.8333
48.0352
48.1536
48.6891
50.0434
52.5078
55.4988
58.0759
60.0775
60.8152
60.6954
60.5477
60.0082
59.0529
57.7626
56.2028
54.5316
52.8925
51.32
49.7554
48.1488
46.4583
44.6061
42.6184
40.5873
6.0928
8.30988
9.54328
10.4475
11.0162
11.3075
11.3797
11.2786
11.0338
10.6744
10.2122
9.68309
9.09641
8.51369
7.95185
7.44777
6.94393
6.45113
5.99675
5.53793
4.94504
4.1384
3.16779
2.17718
1.33365
0.860514
0.737606
0.147251
0.611471
0.702927
3.86322
4.62401
5.12429
5.48192
5.68553
5.76018
5.73488
5.63311
5.47443
5.27304
5.04083
4.78901
4.53223
4.2835
4.06168
3.86581
3.67918
3.50967
3.39392
3.29242
3.09954
2.74201
2.24352
1.66547
1.10962
0.649426
0.39377
0.299563
0.363219
0.315843
3.49092
4.10764
4.54603
4.83489
4.98818
5.03304
4.99374
4.88792
4.7333
4.54354
4.33077
4.1072
3.88851
3.68865
3.52011
3.38075
3.24894
3.13395
3.06874
3.02402
2.9067
2.64708
2.23403
1.73621
1.22591
0.761999
0.466835
0.340103
0.341985
0.33333
3.24171
3.82416
4.278
4.58136
4.74717
4.80212
4.7728
4.67626
4.53096
4.35125
4.15035
3.942
3.74394
3.57162
3.43432
3.32677
3.2216
3.12911
3.07844
3.04315
2.94376
2.71242
2.34187
1.87728
1.38087
0.908131
0.573498
0.38983
0.333823
0.312961
2.97822
3.52796
4.01469
4.35571
4.55088
4.62804
4.61768
4.53823
4.40968
4.24713
4.06499
3.87779
3.70652
3.56527
3.45896
3.38132
3.30009
3.22767
3.18459
3.14597
3.04487
2.82281
2.47035
2.02397
1.53521
1.05675
0.689122
0.457597
0.349232
0.314831
2.66581
3.18775
3.70184
4.07957
4.30959
4.41537
4.42959
4.37456
4.27094
4.13459
3.98106
3.82573
3.68883
3.58481
3.51436
3.4688
3.41405
3.36332
3.32765
3.28171
3.17023
2.94576
2.59992
2.16418
1.68128
1.20033
0.808034
0.539546
0.389799
0.336609
2.22883
2.74929
3.31124
3.728
3.99652
4.13588
4.18052
4.15793
4.08804
3.98761
3.87303
3.76032
3.66718
3.6075
3.5776
3.56706
3.54248
3.51557
3.48794
3.43345
3.30701
3.07315
2.72694
2.29674
1.81891
1.33801
0.928061
0.631374
0.448463
0.375102
1.73632
2.22982
2.8063
3.27378
3.60193
3.78254
3.86659
3.88375
3.85654
3.80178
3.73666
3.67655
3.63686
3.62747
3.64207
3.66971
3.67823
3.67673
3.65743
3.59363
3.44945
3.20181
2.8504
2.42275
1.94903
1.46957
1.04847
0.729738
0.519534
0.426088
1.31482
1.72491
2.27636
2.76844
3.131
3.35692
3.49586
3.55876
3.58164
3.58175
3.57595
3.57783
3.59858
3.64471
3.70735
3.77621
3.81935
3.84345
3.83208
3.75782
3.594
3.32971
2.9703
2.54296
2.07276
1.59585
1.16813
0.832155
0.599465
0.486407
1.00505
1.28957
1.76338
2.25352
2.64325
2.90995
3.08596
3.19666
3.27578
3.33689
3.39816
3.46917
3.55584
3.66228
3.77506
3.88749
3.96619
4.01457
4.00929
3.92276
3.73787
3.45507
3.08714
2.65816
2.19111
1.71776
1.28648
0.937849
0.68634
0.554873
0.809587
0.970572
1.32007
1.76245
2.16279
2.46336
2.67727
2.82987
2.9539
3.07911
3.21234
3.35727
3.51491
3.68413
3.84811
4.00539
4.11988
4.1895
4.18706
4.08564
3.8786
3.57646
3.19978
2.76875
2.30494
1.83607
1.40369
1.046
0.779216
0.630957
0.715575
0.788106
1.0051
1.34518
1.71809
2.03666
2.28395
2.47669
2.64526
2.82068
3.02788
3.24936
3.48255
3.71431
3.92986
4.13251
4.28149
4.36785
4.3636
4.24423
4.01406
3.69305
3.30776
2.87505
2.41495
1.95144
1.51994
1.15591
0.87766
0.714278
0.700795
0.729108
0.84277
1.05576
1.3484
1.65361
1.92105
2.14835
2.35906
2.58339
2.85295
3.15379
3.46188
3.75657
4.02411
4.272
4.45221
4.54945
4.5377
4.39712
4.14272
3.80477
3.41124
2.97767
2.52199
2.0645
1.63545
1.26758
0.98094
0.80422
0.757014
0.762337
0.813493
0.923079
1.10181
1.34693
1.60709
1.85622
2.10357
2.37404
2.69499
3.0779
3.4527
3.81496
4.13526
4.42756
4.63375
4.73513
4.70935
4.54424
4.26524
3.91188
3.51095
3.07756
2.62692
2.17582
1.7505
1.38103
1.0885
0.900087
0.885571
0.8793
0.896161
0.925176
1.00375
1.15155
1.36477
1.61299
1.88609
2.19674
2.57035
3.02565
3.46337
3.89489
4.26886
4.60397
4.82914
4.92729
4.88067
4.68757
4.38453
4.0165
3.60871
3.1761
2.73082
2.28632
1.8657
1.49656
1.19996
1.00116
1.08628
1.06779
1.06435
1.04979
1.04138
1.08552
1.21579
1.43196
1.71301
2.0579
2.48412
2.99298
3.50588
4.00313
4.43227
4.80806
5.04399
5.13154
5.05741
4.8332
4.50587
4.12315
3.70801
3.27607
2.83591
2.39785
1.98221
1.61478
1.31517
1.10701
1.36558
1.32647
1.30237
1.25758
1.19175
1.13957
1.16893
1.32338
1.59195
1.96291
2.42714
2.97956
3.57887
4.1482
4.63606
5.05038
5.2887
5.35875
5.25083
4.99253
4.63896
4.23999
3.81689
3.38379
2.94703
2.51393
2.10269
1.73727
1.43445
1.21792
1.73204
1.66159
1.60928
1.53496
1.42548
1.29923
1.22386
1.28628
1.52331
1.90263
2.39952
3.00285
3.69456
4.34419
4.8968
5.34834
5.58187
5.62846
5.4808
5.18458
4.80081
4.38193
3.95034
3.51287
3.07407
2.64229
2.23411
1.86788
1.56015
1.33476
2.19733
2.0849
1.99409
1.88327
1.73182
1.5439
1.37775
1.33382
1.50104
1.87839
2.41159
3.1003
3.87387
4.6148
5.24203
5.73176
5.95642
5.97444
5.78119
5.44072
5.02159
4.57589
4.12719
3.68166
3.23852
2.8025
2.38963
2.0151
1.69845
1.46039
2.77819
2.61446
2.47477
2.31776
2.11864
1.87152
1.62245
1.47743
1.56357
1.92411
2.51979
3.28426
4.15017
5.00157
5.72022
6.25325
6.47084
6.45515
6.21089
5.81707
5.35338
4.86883
4.39171
3.92499
3.46458
3.0125
2.58385
2.19122
1.85614
1.59983
3.49966
3.27739
3.08034
2.86863
2.61424
2.3046
1.97566
1.73548
1.72657
2.08144
2.73725
3.60368
4.587
5.58136
6.42055
7.01019
7.22834
7.17576
6.87589
6.41584
5.89745
5.3562
4.82086
4.30061
3.794
3.30332
2.8388
2.41185
2.04643
1.76295
4.40275
4.11784
3.85927
3.58949
3.27761
2.90344
2.49408
2.15667
2.05557
2.39475
3.1397
4.15623
5.32146
6.50292
7.5139
8.18645
8.41988
8.33149
7.97644
7.43729
6.81456
6.16118
5.51492
4.89198
4.29538
3.72797
3.19693
2.71331
2.29686
1.97021
5.56219
5.21616
4.90145
4.58059
4.22038
3.7912
3.30785
2.8748
2.68456
3.01707
3.89122
5.13965
6.5885
8.06298
9.33717
10.1352
10.413
10.2953
9.83272
9.141
8.33203
7.48131
6.64285
5.84246
5.08909
4.38698
3.74236
3.16316
2.6635
2.26581
7.12896
6.7362
6.38723
6.0443
5.66916
5.22083
4.69707
4.1943
3.93544
4.28867
5.3679
6.97303
8.84961
10.7668
12.4359
13.4238
13.7456
13.5555
12.9133
11.9721
10.8651
9.69513
8.54143
7.44595
6.42814
5.49595
4.65485
3.90892
3.26472
2.7449
9.42901
9.03215
8.70375
8.4055
8.09364
7.71553
7.24901
6.77586
6.53482
6.98958
8.37932
10.5052
12.999
15.5232
17.7308
18.948
19.3058
18.9863
18.0664
16.7419
15.1801
13.5167
11.865
10.2935
8.83886
7.51654
6.33244
5.2872
4.37903
3.63508
13.1958
12.8793
12.6732
12.5374
12.4352
12.305
12.104
11.8989
11.9113
12.6667
14.4934
17.2773
20.5352
23.7733
26.5712
27.9964
28.3569
27.8358
26.5388
24.6969
22.5198
20.1744
17.8103
15.5311
13.4009
11.4452
9.67443
8.09128
6.68792
5.51187
19.8943
19.8412
19.88
20.0534
20.3729
20.7509
21.0984
21.4832
22.1355
23.4967
25.8811
29.3157
33.2734
37.0973
40.2624
41.7082
41.9857
41.2018
39.52
37.158
34.3645
31.3204
28.1758
25.0643
22.0745
19.2352
16.5746
14.1002
11.8128
9.81633
31.3373
31.5281
32.0662
32.86
33.776
34.742
35.6765
36.7027
38.1302
40.309
43.3316
47.1841
51.4097
55.2413
58.0399
58.9119
58.8453
57.7634
55.9067
53.3883
50.4534
47.26
43.904
40.4723
36.989
33.4487
29.8982
26.3548
22.8491
19.5749
44.908
45.148
46.2274
47.5964
48.9513
50.0947
51.0336
52.0721
53.7628
56.5613
60.2869
64.276
68.0446
70.8424
71.9648
71.1331
70.1387
68.5905
66.7932
64.6931
62.4725
60.2482
58.0748
55.9238
53.634
50.9927
47.8764
44.3846
40.5591
36.6559
46.6889
47.5384
49.1507
50.8229
52.0657
52.7257
53.0342
53.4395
54.5482
56.811
60.152
63.8425
66.8026
68.4061
68.0478
65.9589
64.2555
62.3349
60.5249
58.788
57.2253
55.8893
54.8327
53.9781
53.1562
52.2142
51.0533
49.5836
47.8774
46.0254
8.76648
11.5908
12.9915
14.0124
14.6671
15.001
15.0787
14.9566
14.6666
14.2377
13.6691
12.9973
12.2191
11.4134
10.5927
9.80889
9.01084
8.3905
8.12618
8.00541
7.53276
6.44103
4.84902
3.11049
1.65692
0.878114
0.163519
0.150424
0.687228
0.788969
5.31598
6.15748
6.6409
7.00513
7.2279
7.31605
7.29242
7.18013
6.99887
6.76005
6.47367
6.14672
5.80148
5.44978
5.12289
4.80652
4.51057
4.33983
4.42597
4.61749
4.5817
4.14541
3.37213
2.41621
1.46402
0.65537
0.278173
0.256881
0.343242
0.340581
4.86038
5.44267
5.85818
6.15455
6.32593
6.38828
6.35677
6.24327
6.06339
5.82829
5.55022
5.24113
4.92723
4.62667
4.3611
4.11775
3.89556
3.79049
3.9089
4.13022
4.17501
3.89452
3.2898
2.4771
1.63055
0.836104
0.390235
0.279112
0.310158
0.339864
4.56794
5.06813
5.51277
5.85271
6.06335
6.15535
6.14723
6.04863
5.87572
5.64196
5.36312
5.05561
4.75215
4.47505
4.23935
4.03083
3.84125
3.7708
3.89621
4.09879
4.15306
3.90272
3.36765
2.63223
1.82609
1.03731
0.510776
0.311719
0.291867
0.318482
4.24235
4.68979
5.18339
5.59692
5.87266
6.01341
6.03948
5.9662
5.8106
5.58762
5.31765
5.01992
4.73966
4.48569
4.27781
4.10094
3.94386
3.91123
4.04139
4.2176
4.25535
4.0165
3.50121
2.80033
2.01534
1.23152
0.642318
0.362003
0.292316
0.315453
3.84971
4.251
4.79653
5.28492
5.63272
5.82872
5.89448
5.85543
5.72833
5.52985
5.28511
5.01643
4.76039
4.53974
4.3666
4.22593
4.11049
4.12266
4.2623
4.41079
4.41695
4.16547
3.65347
2.9679
2.19495
1.41458
0.786289
0.433518
0.314338
0.326378
3.3965
3.76102
4.34339
4.8954
5.30647
5.55788
5.66952
5.67348
5.58644
5.42704
5.22069
4.99263
4.78036
4.60428
4.47341
4.37604
4.31537
4.37863
4.53067
4.65112
4.61503
4.33513
3.81456
3.13296
2.36635
1.58836
0.935603
0.525048
0.356947
0.353295
2.86553
3.20512
3.81558
4.41947
4.88412
5.19056
5.35415
5.4089
5.37544
5.26947
5.11867
4.94632
4.79265
4.67029
4.58897
4.54424
4.55028
4.66939
4.83384
4.92439
4.83771
4.51831
3.98002
3.29542
2.53138
1.75476
1.08569
0.632793
0.418799
0.396173
2.32475
2.63497
3.23483
3.85538
4.36364
4.73065
4.9516
5.06724
5.09803
5.06099
4.98167
4.88296
4.79845
4.73811
4.71294
4.73247
4.81379
4.99142
5.16444
5.22054
5.07624
4.70926
4.14737
3.45521
2.69128
1.91565
1.23605
0.752439
0.496979
0.451861
1.85911
2.10643
2.6584
3.26758
3.79559
4.19719
4.47434
4.66233
4.7664
4.81025
4.81903
4.80779
4.8023
4.81108
4.85013
4.94465
5.10865
5.34247
5.51626
5.53059
5.32284
4.90324
4.31455
3.61202
2.8468
2.07282
1.38698
0.880405
0.588937
0.518654
1.48064
1.64988
2.11781
2.68574
3.21452
3.64278
3.96904
4.21414
4.3977
4.53413
4.64355
4.72953
4.81052
4.89679
5.00729
5.18638
5.43833
5.71988
5.88367
5.84554
5.57052
5.09645
4.47979
3.76572
2.99891
2.22771
1.53868
1.01439
0.69243
0.595994
1.1949
1.29111
1.65105
2.14465
2.65057
3.09388
3.46077
3.76098
4.0159
4.25076
4.469
4.65879
4.83405
5.00337
5.19207
5.46496
5.80498
6.11995
6.25997
6.15819
5.81358
5.28642
4.64208
3.91668
3.14879
2.38145
1.69136
1.15319
0.805993
0.683223
1.00058
1.04182
1.2928
1.68603
2.13932
2.57872
2.97395
3.32594
3.65343
3.97575
4.30749
4.60999
4.88223
5.14034
5.41461
5.7888
6.20977
6.53809
6.63884
6.46392
6.04855
5.47301
4.80175
4.06642
3.29843
2.53518
1.84538
1.29659
0.928191
0.779346
0.893396
0.900858
1.06183
1.34898
1.72166
2.12995
2.53682
2.932
3.32769
3.73508
4.17396
4.58557
4.96469
5.31909
5.6873
6.16733
6.65368
6.97379
7.01707
6.76202
6.27711
5.65814
4.96163
4.21802
3.44978
2.69027
2.00171
1.44424
1.05787
0.883174
0.881726
0.863937
0.965819
1.15628
1.4339
1.7812
2.17425
2.59699
3.05167
3.54038
4.08085
4.59095
5.09396
5.55409
6.02567
6.61168
7.13937
7.42725
7.39649
7.05796
6.507
5.84869
5.12906
4.3763
3.60643
2.84989
2.16322
1.59638
1.19415
0.993752
0.961062
0.930802
0.980879
1.09914
1.29382
1.55736
1.90793
2.33547
2.83615
3.40627
4.02493
4.66513
5.28696
5.86429
6.44987
7.13625
7.67472
7.90871
7.78921
7.36644
6.75426
6.05891
5.31703
4.55142
3.77727
3.0225
2.33219
1.75415
1.33669
1.11065
1.15441
1.10921
1.1249
1.17816
1.2743
1.46177
1.74898
2.15982
2.69341
3.32012
4.01216
4.80578
5.56332
6.2752
6.98717
7.76194
8.27836
8.44009
8.22249
7.71637
7.0455
6.31195
5.55324
4.77279
3.98377
3.21632
2.5132
1.91991
1.486
1.23449
1.47814
1.40417
1.38376
1.38195
1.39894
1.47373
1.68421
2.06147
2.6067
3.28457
4.09997
5.03898
5.9528
6.82306
7.67613
8.52163
8.98692
9.06304
8.74353
8.15468
7.42333
6.65172
5.87833
5.06938
4.24276
3.44204
2.7121
2.098
1.64399
1.36771
1.94726
1.8252
1.7585
1.70406
1.65202
1.63115
1.73045
2.03539
2.5823
3.34302
4.31443
5.3988
6.50035
7.56128
8.57383
9.46874
9.86585
9.84798
9.43015
8.75837
7.96616
7.17017
6.33167
5.45797
4.57296
3.71451
2.94167
2.29747
1.81773
1.51415
2.58185
2.39308
2.26749
2.15498
2.03573
1.93187
1.92381
2.16239
2.71187
3.57341
4.68554
5.94389
7.27727
8.57184
9.76871
10.6933
11.0229
10.9138
10.4134
9.67115
8.81076
7.91089
6.95208
5.97037
4.99021
4.06105
3.22737
2.53801
2.02272
1.68261
3.4119
3.14195
2.94734
2.77233
2.58663
2.40244
2.30193
2.45844
3.02571
3.9977
5.29113
6.78341
8.39983
9.98548
11.4036
12.3489
12.6348
12.47
11.9288
11.0426
10.0493
8.94576
7.80017
6.65903
5.54914
4.51479
3.60293
2.84934
2.27742
1.88896
4.4882
4.13125
3.86594
3.63189
3.38697
3.13107
2.95087
3.02542
3.61603
4.73412
6.27469
8.08463
10.0601
12.0148
13.7159
14.6966
15.0146
14.8129
14.1279
13.0486
11.7993
10.4153
9.005
7.63532
6.34093
5.15804
4.1256
3.27657
2.62304
2.16596
5.90694
5.47258
5.15139
4.87819
4.59766
4.29464
4.0561
4.06544
4.70366
6.02455
7.90043
10.1381
12.589
15.0084
17.1015
18.1761
18.4819
18.1496
17.249
15.9198
14.3129
12.555
10.7848
9.09633
7.53622
6.13568
4.9258
3.9281
3.14694
2.58554
7.86451
7.38873
7.05238
6.78584
6.52082
6.22552
5.98165
5.98674
6.7209
8.31846
10.639
13.4363
16.4913
19.478
22.0487
23.1674
23.4002
22.8646
21.6951
20.0076
17.9651
15.7413
13.5102
11.3925
9.45775
7.73691
6.25343
5.01993
4.03263
3.29901
10.7714
10.3307
10.0508
9.86603
9.70555
9.519
9.38458
9.52871
10.4562
12.4113
15.2692
18.7337
22.4922
26.0839
29.1484
30.1629
30.2245
29.4054
27.9054
25.8149
23.293
20.544
17.7796
15.1307
12.698
10.522
8.6215
7.00608
5.67069
4.63932
15.3699
15.0861
14.977
14.9982
15.0648
15.1242
15.2892
15.7863
17.0633
19.4549
22.8644
26.9912
31.4239
35.5155
38.907
39.5123
39.219
38.0312
36.1992
33.7681
30.8627
27.6714
24.4282
21.249
18.2585
15.5093
13.0214
10.8173
8.90376
7.35213
22.7005
22.6176
22.7671
23.1127
23.5844
24.1454
24.7871
25.7856
27.5555
30.4262
34.2819
38.87
43.7075
47.9369
51.1148
50.6764
49.4711
47.6284
45.5505
43.1001
40.3824
37.3685
34.0899
30.7154
27.4046
24.176
21.0496
18.0876
15.3361
12.9492
33.2048
33.2411
33.7209
34.4348
35.2591
36.1635
37.2149
38.7219
41.1224
44.4502
48.5841
53.2555
57.9588
61.5742
63.3357
60.5488
58.2015
55.6782
53.4758
51.2437
49.089
46.96
44.832
42.6108
40.0269
37.0648
33.8139
30.3809
26.8787
23.5446
43.1663
43.5776
44.527
45.6053
46.6014
47.476
48.3924
49.7726
52.1973
55.7684
60.0962
64.5831
68.59
70.5833
69.964
64.868
61.4012
58.2718
55.9701
54.0954
52.7071
51.7003
50.979
50.3415
49.5393
48.257
46.3449
43.8049
40.797
37.6006
42.9577
44.1135
45.6773
47.1837
48.3291
49.0785
49.7168
50.7612
52.7864
55.9455
59.9997
64.1352
67.1428
67.7652
65.0724
58.7096
54.6215
51.2048
48.8183
47.0613
46.0767
45.6858
45.7867
46.1914
46.6075
46.7341
46.4305
45.682
44.5891
43.3457
12.1038
15.5453
17.0907
18.0692
18.7033
18.991
18.9953
18.7809
18.3775
17.8093
17.057
16.156
15.0928
13.9723
12.8081
11.6742
10.5839
10.1693
10.8894
11.9665
12.0119
10.5311
7.92682
4.95296
2.39504
0.199649
0.152827
0.639476
0.748396
0.852377
7.07511
7.9537
8.38694
8.67141
8.86353
8.93129
8.88319
8.73899
8.5161
8.21957
7.86007
7.43578
6.9803
6.49528
6.03445
5.55605
5.14829
5.12606
5.78896
6.65654
6.93358
6.37352
5.20318
3.73305
2.19669
0.634374
0.211679
0.293271
0.34289
0.373605