/*--------------------------------*- C++ -*----------------------------------*\
| =========                 |                                                 |
| \\      /  F ield         | OpenFOAM: The Open Source CFD Toolbox           |
|  \\    /   O peration     | Version:  5.0                                   |
|   \\  /    A nd           | Web:      www.OpenFOAM.org                      |
|    \\/     M anipulation  |                                                 |
\*---------------------------------------------------------------------------*/
FoamFile
{
    version     2.0;
    format      ascii;
    class       volScalarField;
    location    "1200/air";
    object      k;
}
// * * * * * * * * * * * * * * * * * * * * * * * * * * * * * * * * * * * * * //

dimensions      [0 2 -2 0 0 0 0];

internalField   nonuniform List<scalar> 
243000
(
0.0543284
0.0643425
0.0685305
0.0706349
0.0710197
0.0701928
0.0685306
0.0662948
0.0636309
0.0606531
0.0573942
0.0539403
0.0503404
0.0468442
0.0436532
0.0411245
0.0393554
0.0385649
0.0376379
0.0365866
0.035246
0.0334893
0.0327919
0.0298631
0.0284529
0.0265054
0.0242991
0.0222689
0.0200341
0.019977
0.0807842
0.0950611
0.100293
0.102347
0.102146
0.100581
0.0980815
0.0949474
0.0913613
0.0874586
0.0832863
0.0790121
0.074745
0.070851
0.067558
0.0652968
0.063956
0.0632868
0.0624402
0.0610572
0.0589383
0.0560643
0.0523175
0.0485909
0.044204
0.0399485
0.035755
0.0307731
0.025636
0.0251779
0.0910014
0.107757
0.114582
0.117707
0.118023
0.116645
0.114111
0.110792
0.106907
0.10265
0.0981214
0.0935651
0.08914
0.0853001
0.082297
0.0805974
0.0798967
0.0796291
0.0788817
0.0772334
0.0745169
0.0708264
0.0663175
0.0612445
0.0557774
0.0501348
0.0445476
0.0384115
0.0320707
0.0280949
0.0902523
0.110054
0.120058
0.125065
0.126628
0.126127
0.124186
0.121239
0.117572
0.113442
0.109013
0.104615
0.100463
0.0970987
0.0947885
0.0940079
0.0942113
0.0945522
0.0939732
0.0920843
0.0888021
0.0843475
0.0789726
0.0729108
0.0663767
0.0595647
0.0527649
0.0457322
0.0386389
0.0330963
0.0829181
0.105068
0.118007
0.125565
0.129264
0.130278
0.129416
0.127281
0.12424
0.12062
0.116663
0.112788
0.109276
0.10675
0.105467
0.10588
0.107139
0.108166
0.107798
0.105688
0.101877
0.096728
0.0905756
0.0836718
0.0762331
0.0684598
0.0606428
0.052729
0.0450165
0.0384638
0.0726584
0.0953642
0.110906
0.121042
0.127026
0.129932
0.130585
0.129638
0.127573
0.124786
0.121608
0.118563
0.116002
0.114621
0.114655
0.116465
0.118868
0.120607
0.120455
0.118135
0.113839
0.10806
0.101218
0.0935978
0.0854108
0.0768583
0.0682033
0.0594464
0.0511381
0.0437899
0.0631117
0.0848623
0.100743
0.112585
0.120832
0.125838
0.12831
0.12889
0.128094
0.126408
0.124279
0.122326
0.120982
0.121009
0.122622
0.125971
0.129558
0.132001
0.132054
0.129533
0.124791
0.118442
0.110987
0.102749
0.0939492
0.0847635
0.0754275
0.0659744
0.0570345
0.0490152
0.0556694
0.0739107
0.0904119
0.103084
0.112237
0.118926
0.123237
0.125525
0.126245
0.125909
0.125028
0.124393
0.124497
0.126188
0.129576
0.134567
0.13934
0.142459
0.142693
0.139979
0.134826
0.127968
0.119966
0.111193
0.101881
0.0921857
0.0823001
0.0722667
0.0627162
0.0541165
0.0533886
0.0637005
0.0796468
0.0932061
0.103506
0.11113
0.116349
0.120189
0.122471
0.123623
0.124178
0.125033
0.126807
0.13038
0.135682
0.14238
0.148322
0.152071
0.152462
0.149565
0.144037
0.136723
0.128241
0.119001
0.109254
0.0991452
0.0888176
0.0783057
0.0682008
0.0590829
0.0598284
0.0586819
0.0694649
0.0828388
0.0942771
0.103084
0.109411
0.114045
0.117371
0.119938
0.122008
0.124514
0.128127
0.13375
0.141083
0.14951
0.156587
0.160907
0.16143
0.158363
0.152502
0.144788
0.135889
0.126245
0.11613
0.105679
0.0949985
0.0840953
0.0734988
0.063909
0.0692894
0.0643511
0.0640257
0.073177
0.0846414
0.094574
0.102174
0.107834
0.111986
0.11535
0.118814
0.123025
0.128668
0.136457
0.145897
0.156043
0.164194
0.16902
0.169653
0.166434
0.160285
0.152225
0.142972
0.132988
0.122564
0.111835
0.100867
0.0896635
0.0786011
0.0685872
0.0797911
0.0749795
0.0683333
0.0680227
0.0758678
0.0858189
0.0945499
0.101394
0.106553
0.110702
0.114971
0.12079
0.128471
0.138618
0.150214
0.162034
0.171182
0.176451
0.177173
0.173824
0.167432
0.159086
0.149541
0.139278
0.128602
0.117649
0.106448
0.0949809
0.0835212
0.0731268
0.0908834
0.0867484
0.0801373
0.0719653
0.0713699
0.0780611
0.086828
0.0947014
0.10098
0.106072
0.111071
0.11805
0.127793
0.140343
0.154097
0.167519
0.177577
0.183225
0.184021
0.180567
0.173981
0.165407
0.155635
0.145156
0.134283
0.123152
0.111782
0.100071
0.0882746
0.0775561
0.102534
0.098861
0.0927993
0.0842325
0.0749773
0.074063
0.0800543
0.0880199
0.0952772
0.101407
0.107302
0.115027
0.126759
0.141716
0.157585
0.172513
0.183389
0.189358
0.190219
0.186688
0.179959
0.171219
0.161283
0.150651
0.139637
0.128371
0.116847
0.104944
0.0928772
0.0818853
0.114782
0.111242
0.105463
0.097082
0.0854521
0.0765252
0.0761807
0.082088
0.0896307
0.0967226
0.103619
0.112165
0.125502
0.142804
0.160694
0.17701
0.188613
0.19486
0.195779
0.192205
0.185388
0.176544
0.16651
0.155789
0.144688
0.133328
0.121684
0.109624
0.0973424
0.0861018
0.127639
0.123941
0.118129
0.109845
0.0986923
0.0851129
0.0771287
0.0781633
0.0844917
0.0921301
0.100021
0.109536
0.124112
0.143638
0.163417
0.180993
0.193233
0.199729
0.200709
0.197128
0.190277
0.181396
0.171329
0.160586
0.149452
0.138051
0.126318
0.114131
0.101683
0.0902275
0.141116
0.137022
0.130917
0.122471
0.111297
0.0966391
0.0831584
0.0775162
0.0805808
0.0878563
0.0965621
0.107109
0.122645
0.144204
0.165725
0.184426
0.197228
0.203954
0.205005
0.201459
0.194638
0.185786
0.175759
0.165059
0.153951
0.142547
0.130766
0.118482
0.105914
0.0942788
0.155196
0.150516
0.143915
0.135094
0.123684
0.109
0.0927311
0.0808079
0.078674
0.0842623
0.093338
0.104882
0.121164
0.144496
0.167574
0.187265
0.200564
0.207519
0.208665
0.205211
0.198488
0.189737
0.179815
0.16922
0.158202
0.146834
0.135043
0.122696
0.11005
0.0982711
0.169848
0.164419
0.157171
0.147813
0.136002
0.121361
0.10395
0.0875052
0.0793675
0.08176
0.0904969
0.102885
0.119892
0.144476
0.168915
0.189462
0.203209
0.210401
0.2117
0.2084
0.201848
0.193263
0.183507
0.173079
0.162206
0.150928
0.13917
0.126799
0.114108
0.102215
0.185036
0.178725
0.170705
0.160685
0.148337
0.133563
0.115613
0.0964187
0.0827515
0.0807069
0.0882299
0.101134
0.118806
0.144154
0.169703
0.190967
0.205124
0.212592
0.214104
0.21103
0.204724
0.196376
0.186854
0.176653
0.16598
0.154852
0.143177
0.130822
0.118111
0.106127
0.200767
0.19346
0.184558
0.173776
0.160805
0.145719
0.127308
0.10643
0.0883469
0.081363
0.0867231
0.0996757
0.117883
0.143498
0.169828
0.191706
0.206253
0.214054
0.215857
0.213102
0.207122
0.199091
0.189876
0.179968
0.169553
0.158639
0.14711
0.134819
0.122098
0.11004
0.217272
0.208808
0.198887
0.187256
0.173784
0.158102
0.139004
0.11687
0.095524
0.0836961
0.0860769
0.0985908
0.117137
0.142487
0.16928
0.19167
0.206587
0.21472
0.216923
0.21459
0.209037
0.201419
0.192596
0.183051
0.172968
0.162341
0.151034
0.138864
0.126125
0.113995
0.234684
0.225295
0.214179
0.201804
0.187914
0.171056
0.15085
0.127494
0.103697
0.0875505
0.0863837
0.0979577
0.116584
0.141239
0.167949
0.190654
0.205939
0.214542
0.217201
0.215419
0.210428
0.203341
0.195013
0.185929
0.176271
0.166019
0.155017
0.14304
0.130266
0.118045
0.251901
0.242398
0.231705
0.218735
0.202812
0.18436
0.162863
0.138297
0.112566
0.0927003
0.0878736
0.0978427
0.116301
0.140379
0.165905
0.188575
0.204108
0.213166
0.216413
0.215255
0.210956
0.204609
0.196957
0.188499
0.179415
0.169677
0.159101
0.147407
0.134612
0.122268
0.268976
0.260065
0.248898
0.234805
0.217276
0.197599
0.17511
0.149548
0.122265
0.0992739
0.0907286
0.0987078
0.116657
0.140178
0.164742
0.186275
0.201447
0.210662
0.214502
0.214064
0.21046
0.204849
0.19806
0.190445
0.182143
0.173113
0.163152
0.151908
0.139264
0.12682
0.283387
0.273978
0.262372
0.247755
0.23054
0.210902
0.188202
0.162153
0.133781
0.108248
0.0960734
0.101784
0.119124
0.142168
0.16589
0.186519
0.201365
0.210639
0.214807
0.214971
0.211964
0.206828
0.200345
0.192946
0.184846
0.176169
0.166893
0.156293
0.144378
0.131992
0.294292
0.284631
0.273762
0.2608
0.245176
0.226574
0.204553
0.178851
0.150244
0.123116
0.107734
0.110809
0.127497
0.15015
0.173168
0.192893
0.207143
0.216148
0.220382
0.220827
0.218144
0.213255
0.2069
0.199557
0.19149
0.182841
0.173577
0.163329
0.151859
0.1394
0.313704
0.304086
0.293549
0.281623
0.267713
0.251197
0.231453
0.208072
0.181538
0.155201
0.138401
0.139155
0.154831
0.17681
0.198617
0.216737
0.229414
0.237328
0.240833
0.240791
0.237744
0.232511
0.225763
0.217986
0.209471
0.200336
0.190573
0.179954
0.168142
0.154849
0.353988
0.345962
0.338094
0.330082
0.321297
0.310824
0.297826
0.281805
0.263072
0.243506
0.230257
0.230379
0.243426
0.261792
0.279449
0.293161
0.30192
0.306763
0.307996
0.306196
0.301856
0.295559
0.287869
0.279188
0.269699
0.259207
0.247842
0.235746
0.22264
0.207695
0.510277
0.509995
0.5117
0.513029
0.513293
0.511951
0.508527
0.503123
0.496213
0.487111
0.480023
0.477906
0.481089
0.487315
0.492926
0.497463
0.499798
0.501197
0.501487
0.501198
0.500277
0.498925
0.497198
0.495154
0.492411
0.486537
0.478262
0.469923
0.46169
0.449986
0.0812753
0.0983844
0.106622
0.110879
0.112253
0.111639
0.109627
0.106629
0.102889
0.0986287
0.0939627
0.0891283
0.0842309
0.0796984
0.0757347
0.0726775
0.0702144
0.0679411
0.0654104
0.0622654
0.0581556
0.0528298
0.046411
0.0393703
0.0323023
0.0268289
0.0240062
0.0226382
0.0212004
0.0229405
0.128923
0.152825
0.161741
0.163554
0.161445
0.157136
0.151625
0.145494
0.139071
0.132621
0.126249
0.120244
0.114691
0.110094
0.10645
0.10391
0.101376
0.0983411
0.0945619
0.0900173
0.0848099
0.0782596
0.0701585
0.0607576
0.0506292
0.0405897
0.0332558
0.0308023
0.0344943
0.0312848
0.152566
0.18044
0.193879
0.198482
0.197863
0.19427
0.188912
0.18254
0.175633
0.168612
0.161707
0.155363
0.149746
0.145469
0.142408
0.140569
0.138258
0.134693
0.129645
0.123391
0.116106
0.107356
0.0968792
0.0847468
0.0714798
0.0579546
0.0465432
0.0390328
0.0387067
0.0399706
0.157447
0.189899
0.208555
0.216141
0.218096
0.216236
0.212121
0.206646
0.200424
0.193994
0.187718
0.182183
0.177617
0.174655
0.173029
0.172517
0.170926
0.167227
0.16122
0.15346
0.144252
0.133456
0.120869
0.1065
0.090736
0.074485
0.0599865
0.0486915
0.0431971
0.0414447
0.150749
0.184519
0.207648
0.220682
0.226289
0.226805
0.224521
0.220592
0.21578
0.210729
0.205936
0.202106
0.199486
0.198672
0.199187
0.200449
0.199885
0.196297
0.189565
0.180501
0.169581
0.156962
0.142569
0.126385
0.108687
0.0903792
0.0735144
0.0594973
0.0500703
0.0449432
0.132132
0.169931
0.197953
0.215442
0.224575
0.228085
0.228201
0.226352
0.223517
0.220471
0.217844
0.216472
0.216558
0.218623
0.221848
0.22517
0.225786
0.222466
0.215168
0.204952
0.192514
0.178277
0.16233
0.144662
0.125471
0.105602
0.0869046
0.0708725
0.0586574
0.050783
0.107833
0.145718
0.177636
0.201189
0.214689
0.221647
0.224611
0.225347
0.224987
0.22448
0.224594
0.226364
0.229882
0.235425
0.241759
0.247318
0.249157
0.246198
0.238453
0.227216
0.213426
0.19776
0.180463
0.161569
0.141218
0.120164
0.10005
0.0823991
0.0682022
0.0581444
0.0848142
0.11919
0.152157
0.179857
0.197729
0.208834
0.214995
0.21872
0.22128
0.223775
0.227143
0.232709
0.240263
0.249775
0.259476
0.267348
0.270385
0.267835
0.259723
0.247592
0.232588
0.215677
0.197201
0.17728
0.156018
0.134086
0.112904
0.0939621
0.0782627
0.0663798
0.0694186
0.0937865
0.125415
0.155118
0.176925
0.19155
0.20084
0.20766
0.213382
0.219267
0.226254
0.236276
0.248362
0.262232
0.275392
0.285585
0.289757
0.287618
0.279205
0.266289
0.25023
0.232215
0.212719
0.191932
0.169959
0.147393
0.125431
0.105477
0.0885862
0.0751938
0.063032
0.0750969
0.100494
0.129399
0.153661
0.171853
0.184308
0.193754
0.202367
0.211785
0.222854
0.237998
0.254762
0.273182
0.28983
0.302274
0.307478
0.305733
0.297063
0.28346
0.266497
0.247518
0.227147
0.20564
0.183125
0.160122
0.137619
0.116886
0.0990485
0.0844234
0.0640601
0.0675649
0.081654
0.105446
0.129977
0.150561
0.166293
0.178573
0.189523
0.202229
0.21754
0.237674
0.259885
0.282986
0.30304
0.317589
0.323703
0.322311
0.313421
0.299219
0.281482
0.261688
0.240589
0.218501
0.195592
0.172318
0.149464
0.128159
0.109592
0.0939791
0.0710918
0.0695202
0.0738784
0.0875171
0.108297
0.129426
0.147509
0.162645
0.176126
0.191617
0.211012
0.236526
0.264177
0.291916
0.31519
0.331652
0.338545
0.337458
0.32837
0.313657
0.295268
0.274809
0.253126
0.230598
0.207435
0.184028
0.160982
0.139286
0.120189
0.103805
0.0834642
0.0796404
0.0778822
0.0807927
0.0927225
0.110636
0.129337
0.14662
0.162682
0.180855
0.204013
0.234922
0.267971
0.300156
0.326387
0.34454
0.352098
0.351252
0.34199
0.326845
0.307927
0.286945
0.264827
0.242005
0.218725
0.195301
0.172194
0.150265
0.130818
0.113847
0.101772
0.0964349
0.0914356
0.087098
0.0877463
0.097667
0.113621
0.131436
0.149816
0.170579
0.197582
0.233167
0.271526
0.307812
0.336688
0.356293
0.364439
0.36377
0.354348
0.338847
0.319515
0.298152
0.275753
0.252791
0.229527
0.206184
0.183126
0.161099
0.141461
0.124054
0.126688
0.120141
0.112245
0.103196
0.0952587
0.0939745
0.102978
0.118697
0.138105
0.161353
0.191958
0.231398
0.274918
0.314919
0.346117
0.366957
0.375623
0.375082
0.365516
0.349724
0.330088
0.30849
0.285971
0.263021
0.239895
0.216722
0.193811
0.171801
0.152101
0.134376
0.155579
0.147906
0.138656
0.126164
0.112473
0.101401
0.0997775
0.109964
0.128323
0.153579
0.187197
0.229941
0.278138
0.321463
0.354682
0.376579
0.385716
0.385279
0.375571
0.359533
0.339694
0.318023
0.295555
0.272762
0.249875
0.226962
0.204287
0.182409
0.162734
0.144775
0.188204
0.179277
0.168508
0.153776
0.13627
0.117987
0.105792
0.106727
0.12167
0.14747
0.18348
0.22913
0.281211
0.327422
0.362403
0.385234
0.394816
0.394478
0.384614
0.368383
0.348552
0.326927
0.3046
0.282067
0.259511
0.236942
0.214577
0.192937
0.17337
0.155233
0.223989
0.213733
0.201394
0.184977
0.164629
0.141263
0.120104
0.110321
0.118545
0.143134
0.180825
0.228831
0.284071
0.332791
0.36935
0.393055
0.403085
0.402875
0.392837
0.376675
0.356924
0.335318
0.313221
0.291022
0.268873
0.246718
0.224729
0.203402
0.184007
0.165784
0.262285
0.250744
0.236906
0.218967
0.196283
0.169071
0.140912
0.121012
0.119327
0.140905
0.179316
0.229341
0.286581
0.337659
0.375707
0.400297
0.41081
0.410768
0.40089
0.384776
0.365021
0.343461
0.321616
0.299786
0.278086
0.256387
0.234823
0.213945
0.194724
0.176443
0.302405
0.289758
0.274594
0.255194
0.230514
0.200069
0.166356
0.137559
0.126022
0.14101
0.178966
0.23079
0.289032
0.342352
0.381878
0.407445
0.418513
0.418858
0.409128
0.393064
0.373314
0.351784
0.330151
0.308656
0.287375
0.266129
0.245011
0.224675
0.205658
0.187302
0.343659
0.330222
0.314074
0.29364
0.26701
0.233632
0.195272
0.158983
0.138055
0.145613
0.180973
0.233587
0.292703
0.347651
0.388696
0.415425
0.427145
0.427978
0.418523
0.402476
0.382639
0.361061
0.339489
0.318173
0.29717
0.276284
0.255614
0.235878
0.217072
0.198592
0.385367
0.371639
0.355053
0.33387
0.305712
0.26981
0.227437
0.184801
0.155352
0.154263
0.186646
0.239199
0.299267
0.35514
0.397854
0.426034
0.438531
0.439951
0.430844
0.414757
0.394617
0.372755
0.350911
0.329419
0.308383
0.28768
0.267475
0.248173
0.229478
0.210739
0.427389
0.413799
0.397888
0.376354
0.347312
0.309532
0.263862
0.215768
0.178312
0.168415
0.197075
0.249355
0.310415
0.368163
0.412921
0.442967
0.456409
0.458486
0.449687
0.433373
0.412735
0.390206
0.367484
0.345153
0.323488
0.302445
0.282137
0.262775
0.243837
0.224499
0.472135
0.458959
0.443405
0.422406
0.393722
0.355231
0.307464
0.25508
0.21042
0.191818
0.215244
0.267654
0.330972
0.392353
0.441442
0.474278
0.488966
0.491658
0.482602
0.465245
0.443195
0.418857
0.394054
0.369697
0.346236
0.323746
0.302314
0.28195
0.26201
0.241231
0.524518
0.512196
0.497221
0.477415
0.450368
0.412963
0.365293
0.311
0.261134
0.234748
0.251129
0.304449
0.371994
0.43943
0.494723
0.531901
0.54844
0.551732
0.541793
0.522261
0.497061
0.468674
0.439641
0.411198
0.383939
0.358004
0.333448
0.310345
0.287897
0.263981
0.594636
0.584402
0.571824
0.554886
0.530789
0.497168
0.453457
0.40225
0.352447
0.321764
0.331295
0.384732
0.457926
0.533454
0.596111
0.637353
0.655078
0.657842
0.645114
0.621208
0.590276
0.555376
0.519705
0.484727
0.451166
0.419074
0.388344
0.359327
0.330774
0.300914
0.704263
0.698345
0.690197
0.678241
0.660881
0.63609
0.602599
0.56244
0.522311
0.495905
0.502885
0.555114
0.630999
0.711626
0.779107
0.82171
0.839128
0.84005
0.822926
0.792932
0.754535
0.711334
0.666551
0.622119
0.578839
0.536693
0.49571
0.455799
0.415591
0.374136
0.886017
0.885855
0.885165
0.882203
0.876
0.864116
0.845216
0.821413
0.798522
0.785345
0.797522
0.846056
0.916333
0.991395
1.05318
1.09128
1.10684
1.10626
1.08724
1.05501
1.01365
0.96645
0.916354
0.865539
0.814414
0.762284
0.70927
0.654911
0.597638
0.537522
1.10031
1.10377
1.11583
1.12754
1.13676
1.13706
1.12898
1.11535
1.10433
1.10331
1.12279
1.16541
1.22
1.27587
1.3167
1.34129
1.3518
1.35103
1.33665
1.31234
1.28067
1.24389
1.20446
1.16402
1.12143
1.07518
1.02499
0.969233
0.906428
0.837408
1.15385
1.16092
1.18175
1.20093
1.21037
1.20834
1.19787
1.18482
1.17726
1.18118
1.20279
1.23796
1.27405
1.30621
1.3227
1.3283
1.33059
1.32704
1.31729
1.30296
1.28547
1.26635
1.24815
1.23096
1.21368
1.19517
1.17513
1.15047
1.12155
1.08859
0.108555
0.130147
0.13922
0.144361
0.146136
0.14547
0.14311
0.139582
0.135203
0.130254
0.124832
0.119205
0.113414
0.107924
0.102836
0.0984458
0.0942268
0.0902303
0.0866774
0.0831152
0.078116
0.0704667
0.0600193
0.0476644
0.0351308
0.0259767
0.0230937
0.0224917
0.0227963
0.0256618
0.171025
0.204297
0.218298
0.222405
0.220793
0.2162
0.209974
0.202884
0.19533
0.187579
0.179635
0.171758
0.163876
0.15656
0.149683
0.143343
0.136365
0.130126
0.12595
0.123338
0.119691
0.112369
0.0999846
0.0830919
0.0637828
0.0451089
0.0346097
0.0326622
0.0339545
0.0354364
0.203805
0.243372
0.264858
0.274175
0.275726
0.272749
0.267062
0.259706
0.251351
0.242488
0.233307
0.224227
0.215275
0.207108
0.19951
0.192353
0.183917
0.175955
0.170105
0.165969
0.160786
0.151541
0.136506
0.115727
0.0911363
0.0661274
0.0489098
0.040445
0.0400108
0.0443214
0.216906
0.261751
0.288524
0.302714
0.308411
0.308192
0.304301
0.298004
0.290239
0.281701
0.272789
0.264042
0.255572
0.247971
0.240905
0.233988
0.225038
0.21599
0.208596
0.202643
0.195552
0.184385
0.167225
0.143795
0.115653
0.0861741
0.0635569
0.0491828
0.0439055
0.0461962
0.216423
0.259647
0.29297
0.31465
0.324974
0.328282
0.326872
0.322448
0.316231
0.309098
0.301651
0.29449
0.287731
0.281802
0.276146
0.270153
0.261258
0.251534
0.242776
0.23499
0.225886
0.212831
0.193932
0.168647
0.138145
0.105583
0.0786718
0.0595757
0.0493918
0.0488387
0.207981
0.249211
0.285838
0.311843
0.327831
0.335646
0.337512
0.335642
0.331825
0.32707
0.322185
0.317747
0.313781
0.310433
0.306837
0.302225
0.293749
0.283633
0.273682
0.264097
0.252974
0.238075
0.217667
0.191032
0.158968
0.124318
0.0940984
0.0713706
0.0571374
0.0536775
0.188178
0.229382
0.270107
0.300346
0.320575
0.332221
0.337657
0.339216
0.33864
0.337186
0.335957
0.335325
0.335124
0.335128
0.334079
0.331141
0.323334
0.313025
0.302021
0.290702
0.277591
0.2609
0.239122
0.211461
0.178383
0.14236
0.109676
0.0841343
0.0666838
0.0606977
0.160826
0.200068
0.242798
0.277779
0.303464
0.319373
0.329003
0.334493
0.337938
0.340646
0.344206
0.348392
0.352841
0.356837
0.358683
0.357555
0.350578
0.340221
0.32827
0.315294
0.300246
0.281821
0.258764
0.230287
0.196579
0.159716
0.125276
0.0975145
0.0775249
0.0693286
0.13333
0.16731
0.209793
0.247903
0.277381
0.29785
0.312654
0.322667
0.330873
0.338704
0.348081
0.357927
0.367782
0.376234
0.381229
0.381952
0.375902
0.36558
0.352764
0.338201
0.321283
0.30119
0.276934
0.247777
0.213711
0.176429
0.140825
0.111293
0.0893073
0.079141
0.110504
0.135717
0.174307
0.2138
0.246584
0.27127
0.290094
0.304971
0.318665
0.332411
0.347982
0.36471
0.380636
0.393877
0.402138
0.404706
0.399619
0.389379
0.375742
0.359651
0.340939
0.319262
0.293885
0.264148
0.229912
0.192561
0.156317
0.125392
0.101823
0.0899258
0.0945918
0.110085
0.140739
0.17831
0.21316
0.241547
0.264473
0.283918
0.302596
0.322864
0.345805
0.36979
0.391964
0.410195
0.421726
0.426113
0.42199
0.41183
0.397388
0.379812
0.359395
0.336227
0.309819
0.279594
0.245339
0.208207
0.171666
0.139755
0.114949
0.10155
0.0864853
0.0938409
0.114621
0.145736
0.179756
0.21061
0.237298
0.261278
0.28512
0.311189
0.342311
0.373946
0.402378
0.425527
0.440224
0.446416
0.443234
0.433121
0.41785
0.39883
0.376794
0.352239
0.324907
0.294291
0.260142
0.223377
0.186833
0.154325
0.128596
0.113903
0.085805
0.0880983
0.0998594
0.12139
0.150142
0.180932
0.210288
0.238403
0.267361
0.299512
0.338168
0.377555
0.412234
0.440143
0.457882
0.46583
0.463558
0.453423
0.437281
0.416843
0.393277
0.367447
0.339312
0.308414
0.274471
0.238161
0.201854
0.169056
0.14269
0.126874
0.0932183
0.0920286
0.0968937
0.10961
0.129275
0.155962
0.185609
0.216759
0.250381
0.289028
0.333942
0.380852
0.421772
0.45424
0.474908
0.484564
0.483167
0.472931
0.455854
0.434014
0.409003
0.382009
0.353197
0.322131
0.288458
0.252685
0.216817
0.183991
0.157178
0.140355
0.109491
0.106348
0.106571
0.110288
0.121034
0.139787
0.16595
0.198006
0.235517
0.280156
0.330577
0.384275
0.431154
0.467979
0.491505
0.502849
0.502294
0.491857
0.473784
0.450563
0.424186
0.396133
0.366754
0.335597
0.302289
0.267097
0.231814
0.199188
0.172019
0.154239
0.13479
0.130018
0.127319
0.125215
0.126066
0.134482
0.154108
0.184097
0.224107
0.272868
0.328282
0.387938
0.440496
0.481534
0.507908
0.520965
0.521221
0.510495
0.491384
0.466799
0.439122
0.410091
0.380203
0.349043
0.316153
0.281622
0.246963
0.214686
0.187186
0.168435
0.168845
0.162135
0.156797
0.150394
0.143924
0.141451
0.150398
0.175835
0.215696
0.26741
0.32711
0.391725
0.449943
0.495136
0.524437
0.539296
0.540326
0.529262
0.509098
0.483177
0.454245
0.424269
0.393899
0.362768
0.330285
0.296392
0.262405
0.230535
0.202678
0.182874
0.21067
0.201442
0.193193
0.183075
0.170931
0.159845
0.157193
0.173041
0.210659
0.263953
0.327015
0.396046
0.45979
0.509161
0.541572
0.558383
0.560195
0.548797
0.527604
0.500371
0.470207
0.439289
0.40842
0.377229
0.345046
0.311701
0.278362
0.24678
0.21854
0.19753
0.258963
0.24665
0.235042
0.221221
0.204302
0.186159
0.173663
0.178188
0.209201
0.262602
0.32907
0.401885
0.470614
0.524256
0.560088
0.579078
0.58174
0.570092
0.547945
0.519438
0.488068
0.456173
0.424662
0.393258
0.361132
0.328156
0.295183
0.263527
0.234862
0.212463
0.312489
0.296716
0.281384
0.263686
0.242335
0.218267
0.197457
0.19098
0.213719
0.264608
0.333927
0.410962
0.483417
0.541564
0.581291
0.602784
0.606441
0.594734
0.571798
0.542082
0.509589
0.476576
0.44424
0.412294
0.37987
0.34669
0.313432
0.28119
0.25179
0.227867
0.370286
0.35095
0.331777
0.310156
0.284545
0.255261
0.227272
0.211606
0.225327
0.272749
0.343568
0.424
0.499883
0.563121
0.607443
0.631879
0.63679
0.625332
0.60193
0.571135
0.537767
0.503526
0.469646
0.436181
0.40247
0.368269
0.333913
0.300414
0.269739
0.244068
0.431843
0.409186
0.386438
0.361207
0.3318
0.297986
0.263879
0.240354
0.243867
0.288317
0.359935
0.443342
0.523918
0.592638
0.642568
0.670492
0.677065
0.666309
0.643115
0.61162
0.576393
0.539686
0.503034
0.466806
0.430609
0.39423
0.357787
0.322291
0.289621
0.261677
0.497483
0.472216
0.446756
0.418797
0.38659
0.349393
0.310425
0.279935
0.273753
0.313406
0.386152
0.47385
0.560862
0.636874
0.693891
0.725819
0.734709
0.725237
0.701296
0.667751
0.629158
0.588375
0.547389
0.506898
0.466783
0.4269
0.38744
0.348959
0.313251
0.282093
0.56944
0.543007
0.516431
0.487523
0.454374
0.415774
0.374024
0.338225
0.32426
0.356784
0.431069
0.524609
0.619993
0.705069
0.770255
0.80666
0.817307
0.808184
0.782542
0.74578
0.702511
0.656082
0.609034
0.562483
0.516674
0.471609
0.427518
0.384867
0.344503
0.308465
0.653886
0.628846
0.603864
0.576832
0.545681
0.508887
0.467982
0.430694
0.41215
0.437614
0.511266
0.611398
0.716168
0.811006
0.884253
0.924131
0.935727
0.926016
0.897735
0.856611
0.807447
0.753925
0.6991
0.644605
0.591084
0.53874
0.487812
0.438695
0.391798
0.3482
0.764859
0.744794
0.725032
0.703416
0.678027
0.647401
0.612645
0.580176
0.562603
0.583418
0.653995
0.757165
0.868479
0.970807
1.04912
1.08973
1.10093
1.08962
1.05837
1.01279
0.957876
0.89734
0.834471
0.771339
0.708993
0.647678
0.587584
0.529082
0.472206
0.417958
0.925711
0.915181
0.903716
0.890324
0.873981
0.853472
0.829472
0.807331
0.796432
0.816951
0.881363
0.98063
1.0905
1.19186
1.26777
1.30368
1.31233
1.29873
1.266
1.21872
1.16197
1.09909
1.03268
0.964917
0.896796
0.828163
0.759081
0.689633
0.619637
0.550788
1.15081
1.14802
1.14751
1.14566
1.13921
1.1279
1.113
1.09988
1.09637
1.11901
1.1759
1.26329
1.36011
1.44706
1.50696
1.52811
1.52962
1.51283
1.48219
1.44011
1.39126
1.33824
1.2823
1.2246
1.16437
1.10012
1.03115
0.95722
0.877882
0.79533
1.36013
1.36169
1.37241
1.38096
1.38143
1.37375
1.3603
1.34836
1.34748
1.37148
1.42323
1.49537
1.56874
1.62709
1.65613
1.65101
1.6385
1.61604
1.58885
1.55722
1.52493
1.4937
1.46393
1.43599
1.40632
1.37076
1.32587
1.2715
1.20643
1.13301
1.35104
1.36512
1.38649
1.40334
1.40942
1.40292
1.38803
1.37423
1.37354
1.39293
1.43462
1.4894
1.53967
1.57168
1.57445
1.549
1.52483
1.49629
1.46898
1.44333
1.42175
1.4051
1.39413
1.38759
1.3823
1.37529
1.36456
1.34727
1.32374
1.2935
0.13835
0.16247
0.171006
0.17557
0.176861
0.175635
0.172647
0.168477
0.163448
0.157824
0.151607
0.145044
0.138068
0.131212
0.124503
0.118294
0.112123
0.107546
0.106188
0.106309
0.103464
0.0946851
0.0797758
0.0605457
0.0407005
0.0261742
0.0230316
0.0228634
0.0246295
0.0276986
0.219153
0.255405
0.268642
0.272446
0.270398
0.265368
0.258769
0.251345
0.243351
0.234856
0.22559
0.215697
0.204917
0.194073
0.183117
0.172403
0.161529
0.155978
0.158507
0.164952
0.167474
0.160179
0.141004
0.111958
0.0787709
0.0464134
0.0327235
0.0301402
0.0341814
0.0387636
0.263865
0.305174
0.326869
0.337186
0.339581
0.337383
0.332229
0.325076
0.316439
0.306582
0.295432
0.283267
0.270035
0.256762
0.243514
0.230353
0.216718
0.209422
0.21138
0.217774
0.220165
0.211691
0.189428
0.154689
0.113035
0.0705355
0.0449392
0.0365469
0.0407126
0.0486166
0.286803
0.329957
0.357347
0.374657
0.382838
0.384917
0.382551
0.377047
0.369203
0.359493
0.348093
0.335364
0.321486
0.307509
0.293589
0.279424
0.264297
0.255716
0.256304
0.261167
0.262154
0.252252
0.228069
0.190138
0.143402
0.0940304
0.0586835
0.0433776
0.0441636
0.0519723
0.292509
0.332402
0.367784
0.393579
0.407657
0.414912
0.416086
0.413118
0.407139
0.398813
0.388527
0.376654
0.363555
0.350139
0.336592
0.322323
0.30653
0.297119
0.296139
0.298869
0.297729
0.286062
0.26044
0.220733
0.171002
0.117132
0.0741285
0.0517082
0.0480571
0.0552934
0.287572
0.324052
0.362325
0.393972
0.417119
0.430361
0.435678
0.436142
0.433063
0.427342
0.419477
0.409815
0.39876
0.386919
0.374522
0.3608
0.344978
0.335113
0.332567
0.332892
0.329163
0.315472
0.288536
0.247779
0.196385
0.139681
0.0911686
0.0621215
0.0539335
0.0597495
0.27501
0.307648
0.34825
0.384887
0.412922
0.43151
0.442677
0.447795
0.448699
0.446829
0.442712
0.436593
0.428693
0.419293
0.408657
0.39599
0.380699
0.370709
0.366663
0.364369
0.357772
0.341828
0.313562
0.272111
0.219862
0.161669
0.109261
0.0746113
0.0620755
0.0661995
0.251489
0.281537
0.324978
0.366454
0.399332
0.423108
0.439128
0.449166
0.455321
0.458648
0.459597
0.458295
0.454562
0.448315
0.439908
0.42871
0.414414
0.40453
0.399032
0.394013
0.38434
0.365961
0.336291
0.294315
0.241781
0.182646
0.127656
0.0887974
0.0723235
0.0749938
0.220872
0.248669
0.293016
0.337657
0.375288
0.404765
0.42614
0.442034
0.453921
0.463885
0.471284
0.476085
0.477372
0.474855
0.468998
0.459616
0.446668
0.437028
0.43007
0.422238
0.409346
0.388408
0.357262
0.314817
0.262375
0.202777
0.146228
0.104295
0.0843337
0.0854521
0.190826
0.214067
0.256943
0.303109
0.344209
0.377976
0.40494
0.427602
0.446473
0.463089
0.478817
0.490843
0.497976
0.499659
0.496548
0.489266
0.477887
0.46853
0.460028
0.449284
0.433099
0.409549
0.376877
0.333936
0.281511
0.222204
0.164996
0.120783
0.0978016
0.0972364
0.163889
0.180999
0.219619
0.265254
0.308671
0.346374
0.378715
0.407431
0.43397
0.459128
0.483748
0.50344
0.516973
0.52334
0.523124
0.518151
0.508452
0.499283
0.48909
0.475314
0.455829
0.429675
0.395472
0.351985
0.299691
0.241045
0.183863
0.138018
0.112535
0.110107
0.142098
0.152753
0.184654
0.227132
0.271194
0.312118
0.349472
0.384359
0.418214
0.453033
0.487205
0.514563
0.534979
0.546304
0.549278
0.54673
0.538707
0.529515
0.517404
0.50049
0.477738
0.449043
0.413357
0.36931
0.317288
0.259476
0.202761
0.155845
0.128296
0.123946
0.126888
0.131991
0.156032
0.192721
0.235014
0.277746
0.319342
0.36032
0.401862
0.445791
0.489279
0.525015
0.552471
0.568997
0.575479
0.575445
0.568997
0.559442
0.545149
0.52501
0.499062
0.467919
0.430847
0.386314
0.334609
0.277685
0.221656
0.174244
0.144902
0.138596
0.119494
0.120694
0.137272
0.166574
0.204273
0.24643
0.290895
0.337345
0.386792
0.439051
0.490956
0.535465
0.569955
0.59187
0.602208
0.604759
0.599683
0.589452
0.572597
0.549162
0.520112
0.486638
0.448281
0.403419
0.351956
0.295886
0.240663
0.193124
0.162201
0.153875
0.121983
0.119462
0.130102
0.152651
0.183462
0.221753
0.266693
0.317519
0.373979
0.433374
0.492632
0.546393
0.588
0.615392
0.629979
0.635175
0.631187
0.619799
0.600133
0.573381
0.541337
0.505664
0.466146
0.421012
0.369713
0.314408
0.26005
0.212459
0.18007
0.169618
0.135682
0.131442
0.136772
0.150164
0.173899
0.206708
0.249533
0.30227
0.363417
0.429143
0.495325
0.558276
0.607093
0.640231
0.659371
0.667278
0.664022
0.650989
0.628342
0.598303
0.563396
0.525654
0.485043
0.439636
0.388566
0.333852
0.279982
0.232298
0.198431
0.185682
0.162146
0.156279
0.157195
0.163305
0.175855
0.200386
0.238851
0.291193
0.35554
0.426673
0.500155
0.571646
0.627797
0.667101
0.691185
0.701778
0.698858
0.683754
0.658069
0.624864
0.587226
0.547496
0.505872
0.46024
0.409303
0.354535
0.300653
0.252708
0.217277
0.201979
0.200963
0.19251
0.189361
0.188929
0.192416
0.205184
0.234973
0.284797
0.350671
0.426035
0.50751
0.587102
0.650874
0.696918
0.726425
0.739576
0.736599
0.719174
0.690588
0.654419
0.614153
0.572665
0.530394
0.483721
0.43188
0.376713
0.322149
0.273686
0.236714
0.218516
0.250411
0.238163
0.230418
0.224216
0.219851