/*--------------------------------*- C++ -*----------------------------------*\
| =========                 |                                                 |
| \\      /  F ield         | OpenFOAM: The Open Source CFD Toolbox           |
|  \\    /   O peration     | Version:  5.0                                   |
|   \\  /    A nd           | Web:      www.OpenFOAM.org                      |
|    \\/     M anipulation  |                                                 |
\*---------------------------------------------------------------------------*/
FoamFile
{
    version     2.0;
    format      ascii;
    class       volScalarField;
    location    "1200/air";
    object      nut;
}
// * * * * * * * * * * * * * * * * * * * * * * * * * * * * * * * * * * * * * //

dimensions      [0 2 -1 0 0 0 0];

internalField   nonuniform List<scalar> 
243000
(
0.000123124
0.000128987
0.000128255
0.000125594
0.000121646
0.00011702
0.000112113
0.000107173
0.000102325
9.76556e-05
9.31691e-05
8.89007e-05
8.48506e-05
8.11859e-05
7.80433e-05
7.57335e-05
7.43709e-05
7.37995e-05
7.40411e-05
7.43143e-05
7.44118e-05
7.4211e-05
7.54042e-05
7.35674e-05
7.37525e-05
7.32878e-05
7.21166e-05
0.000305253
0.000293686
7.25594e-05
0.00053232
0.000577385
0.000592989
0.000598942
0.000598275
0.000593592
0.000586089
0.000576574
0.000565515
0.000553252
0.000539856
0.000525788
0.000511354
0.000497793
0.000485993
0.000477658
0.000472612
0.000470106
0.000467036
0.000462004
0.000454076
0.000442955
0.000424143
0.000412576
0.000390526
0.000371343
0.000351454
0.000329575
0.000299487
0.000294125
0.000565094
0.000614706
0.000633782
0.000642263
0.000643037
0.000639183
0.000632114
0.000622769
0.00061168
0.000599316
0.000585892
0.00057207
0.000558308
0.000546051
0.000536221
0.0005305
0.00052808
0.000527256
0.000524875
0.000519547
0.000510527
0.000497866
0.000481632
0.000463131
0.000441817
0.00041877
0.000394663
0.000366527
0.000334822
0.000313187
0.000563063
0.000621307
0.000648781
0.000662032
0.000666063
0.000664645
0.000659415
0.000651452
0.000641441
0.000629999
0.000617506
0.000604835
0.000592607
0.000582462
0.000575324
0.000572777
0.000573305
0.000574398
0.000572796
0.000567235
0.000557269
0.000543287
0.000525803
0.000505302
0.000482133
0.000456667
0.000429696
0.000399892
0.000367493
0.000340025
0.00054027
0.000607313
0.000643355
0.000663462
0.000673026
0.000675532
0.000673179
0.000667497
0.000659378
0.000649609
0.000638765
0.000627953
0.000617955
0.00061059
0.000606713
0.000607717
0.000611252
0.000614263
0.000613414
0.000607634
0.000596832
0.000581748
0.000563081
0.000541281
0.000516693
0.000489612
0.000460706
0.000429422
0.000396661
0.000366555
0.000505908
0.00057899
0.000623966
0.000651597
0.000667311
0.000674729
0.000676274
0.000673688
0.000668181
0.000660724
0.000652129
0.000643758
0.000636579
0.000632558
0.000632424
0.000637221
0.000643725
0.000648543
0.000648366
0.000642367
0.000630841
0.000614823
0.000595188
0.00057244
0.000546881
0.000518767
0.000488596
0.000455996
0.00042278
0.000391109
0.000471581
0.000546316
0.000594844
0.000628693
0.000651036
0.000664162
0.00067046
0.000671808
0.000669576
0.000665006
0.000659214
0.000653814
0.000649978
0.000649785
0.000653852
0.000662565
0.000671935
0.000678407
0.000678806
0.000672584
0.000660423
0.000643615
0.000623179
0.000599706
0.00057351
0.000544756
0.000513808
0.000480393
0.000446492
0.000413784
0.000442453
0.000510079
0.000563742
0.000601714
0.00062756
0.00064583
0.000657198
0.00066307
0.000664778
0.000663702
0.000661156
0.000659228
0.00065921
0.000663362
0.000671951
0.000684642
0.000696727
0.000704695
0.000705561
0.000699122
0.000686398
0.000668924
0.000647823
0.000623787
0.000597156
0.000568047
0.00053667
0.000502769
0.000468197
0.000434774
0.000431941
0.000473456
0.000529378
0.000572365
0.000602807
0.000624382
0.000638631
0.000648911
0.000654823
0.000657662
0.000658867
0.000660819
0.000665136
0.000674091
0.000687405
0.000704079
0.000718719
0.000728001
0.000729249
0.000722601
0.000709391
0.000691355
0.000669718
0.000645239
0.00061831
0.000589027
0.000557463
0.000523327
0.000488229
0.000454273
0.000456367
0.00045339
0.000494381
0.000539816
0.000575498
0.000601469
0.000619374
0.000632141
0.000641098
0.000647801
0.000653038
0.000659328
0.000668402
0.000682527
0.000700746
0.000721335
0.000738362
0.000748775
0.000750324
0.000743488
0.00072987
0.000711378
0.000689319
0.000664509
0.000637389
0.000608054
0.000576475
0.000542295
0.000506809
0.000472441
0.000491177
0.000473088
0.000473627
0.000507292
0.000545462
0.000576248
0.000598632
0.000614732
0.000626224
0.000635297
0.00064438
0.00065523
0.000669584
0.000689158
0.000712386
0.000736763
0.000755972
0.000767341
0.000769129
0.000762129
0.000748188
0.00072934
0.000706974
0.00068194
0.000654726
0.000625434
0.000593947
0.000559916
0.000524078
0.000489405
0.00052732
0.000510873
0.00048763
0.000488137
0.000516301
0.000549026
0.000575964
0.000596145
0.000610852
0.000622337
0.000633809
0.000649091
0.000668837
0.000694333
0.000722626
0.000750614
0.000771781
0.000783946
0.000785919
0.000778793
0.00076461
0.000745511
0.000722946
0.000697794
0.000670573
0.000641402
0.000610089
0.000576221
0.000540194
0.000505314
0.000563008
0.000549819
0.000528181
0.000500589
0.000499976
0.000523494
0.000551997
0.000576185
0.000594669
0.000609148
0.000622898
0.000641507
0.000666807
0.000698365
0.000731678
0.000763053
0.000785956
0.000798768
0.000800888
0.000793679
0.000779339
0.000760093
0.00073744
0.000712275
0.000685133
0.000656144
0.000625108
0.000591388
0.000555307
0.00052037
0.000598206
0.000587235
0.000568748
0.00054167
0.000511533
0.000509382
0.000529932
0.000555503
0.000577629
0.000595553
0.000612141
0.000633054
0.000663825
0.000701485
0.000739682
0.000774181
0.000798605
0.00081194
0.000814185
0.00080694
0.000792532
0.000773243
0.00075061
0.00072554
0.000698565
0.00066981
0.000639021
0.000605538
0.000569543
0.000534649
0.000633101
0.000623155
0.000606624
0.000581855
0.000545565
0.000517029
0.000516619
0.000536394
0.000560226
0.000581569
0.000601429
0.000624993
0.000660234
0.000703895
0.000746711
0.000784048
0.000809784
0.000823568
0.000825917
0.000818694
0.00080431
0.000785084
0.000762581
0.000737713
0.00071099
0.00068253
0.000652021
0.000618807
0.00058301
0.000548189
0.000667769
0.00065795
0.000642256
0.000619222
0.000586795
0.000545021
0.000519401
0.000523257
0.000543871
0.000567512
0.000590756
0.00061746
0.000656262
0.000705634
0.000752781
0.000792659
0.000819528
0.000833703
0.000836166
0.000829025
0.000814756
0.000795705
0.000773442
0.000748886
0.000722502
0.000694412
0.000664224
0.000631307
0.000595797
0.000561112
0.000702271
0.00069196
0.000676315
0.000654072
0.000623436
0.000580841
0.00053906
0.000520875
0.00053105
0.000554092
0.000580292
0.000610384
0.000652056
0.00070671
0.000757845
0.000799981
0.000827839
0.000842383
0.00084498
0.000837996
0.000823948
0.000805181
0.000783279
0.000759146
0.000733199
0.000705527
0.000675715
0.000643132
0.000607991
0.000573508
0.00073659
0.000725364
0.000709249
0.000687128
0.000657425
0.000617066
0.000569212
0.000531663
0.000524655
0.000542544
0.000570349
0.000603764
0.000647812
0.000707113
0.000761831
0.000805954
0.000834693
0.000849614
0.000852395
0.000845672
0.000831965
0.000813601
0.000792166
0.000768555
0.000743155
0.000715956
0.000686575
0.000654368
0.000619668
0.000585458
0.000770677
0.000758241
0.00074132
0.000718895
0.000689556
0.000651328
0.000602808
0.000553251
0.000526952
0.000534367
0.000561428
0.000597765
0.000644281
0.000706746
0.000764644
0.000810506
0.000840053
0.000855393
0.000858477
0.000852123
0.000838883
0.000821028
0.000800159
0.000777168
0.000752399
0.000725768
0.000696885
0.000665114
0.000630903
0.000597019
0.000804483
0.000790636
0.000772686
0.000749665
0.000720289
0.000683492
0.000635932
0.000580868
0.00053815
0.000530926
0.000554191
0.000592432
0.000641204
0.000705711
0.000766218
0.000813554
0.000843872
0.000859724
0.000863239
0.000857384
0.000844741
0.000827517
0.000807324
0.000785053
0.000760999
0.00073504
0.000706744
0.000675479
0.000641787
0.00060826
0.000838053
0.00082266
0.000803515
0.000779703
0.000750065
0.00071405
0.000667483
0.000610431
0.000556204
0.000533179
0.000549352
0.000587943
0.000638551
0.000703873
0.000766258
0.000814948
0.000846049
0.000862555
0.000866661
0.000861479
0.000849574
0.000833121
0.000813729
0.000792285
0.000769048
0.000743874
0.000716282
0.000685617
0.000652441
0.000619293
0.000871842
0.000854719
0.000834187
0.000809458
0.000779871
0.000743893
0.000697611
0.000639821
0.000578536
0.000540951
0.000547287
0.000584567
0.000636378
0.0007012
0.000764824
0.00081471
0.000846613
0.000863773
0.000868688
0.000864375
0.00085339
0.000837882
0.000819443
0.000798946
0.000776655
0.000752405
0.000725673
0.000695722
0.000663023
0.000630245
0.000906183
0.000887871
0.000865704
0.0008404
0.00081101
0.000773851
0.000726838
0.000668399
0.000602947
0.000553495
0.000548368
0.000582574
0.000634745
0.000698126
0.000761635
0.000812375
0.000845124
0.000863272
0.000869125
0.000865923
0.000856118
0.000841769
0.000824471
0.000805106
0.000783939
0.000760784
0.000735083
0.000706006
0.00067373
0.000641261
0.000938914
0.000921055
0.000900541
0.000875001
0.000842614
0.000803465
0.000755318
0.000696247
0.000628345
0.000569795
0.000553238
0.000582181
0.000633883
0.000695992
0.000756847
0.000807781
0.00084122
0.000860372
0.000867428
0.000865494
0.000857072
0.000844274
0.000828461
0.000810546
0.000790799
0.000769019
0.000744604
0.000716607
0.000684785
0.00065254
0.000970284
0.000954081
0.000933396
0.000906637
0.000872228
0.000831894
0.000783286
0.000724103
0.000654982
0.000589918
0.000562388
0.000584785
0.000634791
0.000695512
0.000754309
0.000802918
0.000835754
0.00085531
0.000863587
0.000863081
0.00085604
0.000844665
0.000830665
0.000814611
0.000796683
0.000776667
0.000753929
0.000727368
0.00069643
0.000664496
0.000995964
0.000979312
0.000958384
0.000931371
0.00089851
0.000859502
0.000812109
0.000754082
0.000685243
0.00061625
0.000579055
0.000593948
0.000641491
0.000700518
0.000757079
0.00080354
0.000835655
0.000855302
0.000864207
0.000864895
0.000859073
0.000848746
0.000835451
0.000819952
0.000802587
0.000783431
0.000762446
0.000737715
0.000709031
0.000677838
0.00101503
0.000998255
0.00097904
0.000955633
0.000926644
0.00089092
0.00084671
0.000792015
0.00072625
0.000657392
0.000613631
0.000620073
0.000663919
0.000720214
0.000773823
0.000817404
0.000847742
0.000866544
0.00087543
0.000876645
0.00087154
0.000861871
0.000849042
0.000833907
0.000816905
0.000798193
0.000777634
0.00075422
0.000727172
0.000696571
0.00104803
0.00103186
0.00101386
0.0009931
0.000968348
0.000938129
0.000900698
0.000854264
0.000798249
0.000738105
0.000695979
0.000695763
0.000732592
0.000782505
0.000829637
0.000867201
0.000892745
0.000908478
0.000915516
0.000915718
0.000910099
0.00090016
0.000887089
0.000871727
0.000854546
0.000835665
0.000814978
0.000791843
0.000765298
0.000734262
0.00111335
0.00110068
0.00108812
0.0010752
0.00106087
0.00104355
0.00102164
0.000993968
0.000960547
0.000924122
0.000897989
0.000896859
0.000920863
0.000954552
0.000986275
0.00101046
0.00102574
0.0010342
0.00103649
0.00103362
0.00102639
0.00101571
0.00100246
0.000987258
0.000970333
0.000951225
0.000930078
0.000907027
0.000881349
0.000851117
0.00133681
0.00133643
0.00133869
0.00134045
0.00134083
0.00133912
0.0013347
0.00132766
0.00131854
0.00130632
0.00129655
0.00129337
0.00129729
0.00130545
0.00131291
0.001319
0.00132217
0.00132411
0.00132457
0.00132425
0.00132309
0.00132134
0.00131909
0.0013164
0.00131275
0.00130483
0.0012937
0.00128245
0.0012711
0.00125483
0.000150544
0.000159478
0.000159957
0.000157338
0.000152917
0.000147559
0.000141779
0.000135898
0.000130091
0.0001245
0.000119176
0.000114234
0.000109706
0.000105836
0.000102734
0.000100628
9.93158e-05
9.85183e-05
9.78804e-05
9.70773e-05
9.57064e-05
9.33544e-05
8.97685e-05
8.51111e-05
7.95117e-05
7.34677e-05
7.01554e-05
0.00030918
0.00031307
7.97655e-05
0.000547742
0.000632579
0.000627773
0.000597617
0.000562072
0.000526838
0.000494627
0.000466112
0.000441119
0.000419678
0.000401193
0.000386093
0.00037381
0.000365822
0.000360441
0.00035758
0.000352095
0.00034386
0.000332989
0.000322118
0.000313308
0.000305176
0.000295627
0.000282687
0.000264348
0.000242831
0.000240603
0.000299724
0.000300192
0.000319811
0.00085761
0.00100246
0.00103635
0.00101941
0.000982738
0.000939929
0.000897155
0.000857389
0.000821529
0.000790605
0.000764375
0.000744209
0.00072938
0.000722342
0.000719246
0.000718351
0.000708791
0.000689661
0.000661722
0.000631352
0.000603471
0.000579673
0.000556022
0.000526808
0.00048871
0.000444266
0.000407
0.000390215
0.000385407
0.00044134
0.00100706
0.00121317
0.00130062
0.00130827
0.00128996
0.00125597
0.00121697
0.00117838
0.00114272
0.00111236
0.0010882
0.00107273
0.00106529
0.00106808
0.00107453
0.00108036
0.00106981
0.00104091
0.000995745
0.000944334
0.0008945
0.000849968
0.000807312
0.000759574
0.000701351
0.000634764
0.000569449
0.000510798
0.000470907
0.000489607
0.00105402
0.00127329
0.0014037
0.00146957
0.00148737
0.00147343
0.00144772
0.00141912
0.00139204
0.00137045
0.00135683
0.00135485
0.0013637
0.00138416
0.00140673
0.00142286
0.00141331
0.00137553
0.00131408
0.00124255
0.00117133
0.00110624
0.0010447
0.000979143
0.000902851
0.000817228
0.000730795
0.000647153
0.000571393
0.000544094
0.00100941
0.00126012
0.00143168
0.00153697
0.0015883
0.00160364
0.00159922
0.00158737
0.00157553
0.00156953
0.00157359
0.0015929
0.00162567
0.00167125
0.00171527
0.00174307
0.00173502
0.00168854
0.00161148
0.00152111
0.00143017
0.00134599
0.00126698
0.00118539
0.00109363
0.000991958
0.000888441
0.000788893
0.000686483
0.000621531
0.000910449
0.0011628
0.00136993
0.0015219
0.00161136
0.0016593
0.00168159
0.00169214
0.0017011
0.00171656
0.00174442
0.00179251
0.00185702
0.00193375
0.00200248
0.00204213
0.00203453
0.00197927
0.00188711
0.00177924
0.00167043
0.00156911
0.00147448
0.00137887
0.00127405
0.00115871
0.00104122
0.00092824
0.000809429
0.000715242
0.000789208
0.00101901
0.00124238
0.00143117
0.00156285
0.00164939
0.00170294
0.0017411
0.00177608
0.00181817
0.00187541
0.00196004
0.00206353
0.00217591
0.00227089
0.00232137
0.00231229
0.00224821
0.00214132
0.0020174
0.00189259
0.00177623
0.00166784
0.00156014
0.00144397
0.0013185
0.00118999
0.00106554
0.000935999
0.000819229
0.000683246
0.000858662
0.00107881
0.00128915
0.00145611
0.00157992
0.0016701
0.00174031
0.00180601
0.00188038
0.00197134
0.00210167
0.00225019
0.0024018
0.00252185
0.00258169
0.00256891
0.00249595
0.00237502
0.00223652
0.00209767
0.0019682
0.00184792
0.00172981
0.00160474
0.00147143
0.00133444
0.00120091
0.00106337
0.00092955
0.000620189
0.000720724
0.000907872
0.00111905
0.00130882
0.00146531
0.00158972
0.00169476
0.0017958
0.00190766
0.0020403
0.00222733
0.0024213
0.00261243
0.00275639
0.00282347
0.00280486
0.00272324
0.00258917
0.00243772
0.00228679
0.00214614
0.00201565
0.00188841
0.00175656
0.00161742
0.00147435
0.00133378
0.00119107
0.0010438
0.000603763
0.000643209
0.000763334
0.000947234
0.00114177
0.00132
0.00147498
0.0016134
0.00174955
0.00190408
0.00208478
0.00232715
0.00257836
0.0028097
0.00297498
0.00304668
0.00302053
0.00293071
0.00278484
0.00262222
0.00246116
0.00231124
0.0021722
0.00203719
0.00190007
0.00175688
0.00160925
0.00146368
0.0013179
0.00116016
0.000644427
0.000628827
0.000683454
0.000806392
0.000978935
0.00116258
0.0013386
0.00150655
0.00167697
0.00187285
0.00210856
0.00241717
0.00272409
0.00299464
0.00317728
0.00325089
0.00321617
0.00311906
0.00296306
0.00279129
0.00262208
0.00246465
0.00231822
0.00217714
0.00203602
0.00189022
0.00173976
0.00159014
0.00144299
0.00127725
0.000738456
0.000692154
0.000683767
0.000734909
0.000851493
0.00101497
0.00119662
0.0013856
0.00158717
0.00182247
0.002116
0.00249743
0.00285938
0.00316739
0.00336226
0.0034353
0.00339207
0.00328892
0.00312485
0.00294609
0.00277082
0.00260704
0.00245434
0.00230898
0.00216516
0.0020179
0.00186602
0.00171365
0.0015658
0.001394
0.000892827
0.000825025
0.000775396
0.000755961
0.000794281
0.000904894
0.00106802
0.00126365
0.00149008
0.00176231
0.00211875
0.00256673
0.00298374
0.00332456
0.00352826
0.00359873
0.00354855
0.00344081
0.00327104
0.00308773
0.00290795
0.00273931
0.00258191
0.00243357
0.00228819
0.00214043
0.0019883
0.00183464
0.00168604
0.00150964
0.00111339
0.00103098
0.000945826
0.000871865
0.000832028
0.000860806
0.000975368
0.00115651
0.00139534
0.00170254
0.00211981
0.00262208
0.00309702
0.00346431
0.00367333
0.00374019
0.00368542
0.00357499
0.00340213
0.00321668
0.00303396
0.00286212
0.00270189
0.00255173
0.00240579
0.0022584
0.00210705
0.00195325
0.00180401
0.00162383
0.00137661
0.00128435
0.00118082
0.00106474
0.00096165
0.000905225
0.000938748
0.00107976
0.00131427
0.00165321
0.00211654
0.00266361
0.00319708
0.00358352
0.0037952
0.00385847
0.00380202
0.00369145
0.00351813
0.00333263
0.00314903
0.00297585
0.0028148
0.0026641
0.00251849
0.00237232
0.00222272
0.00206999
0.00192001
0.00173638
0.00167577
0.00157523
0.00145648
0.00131298
0.00116402
0.00103471
0.000977853
0.00104561
0.00126099
0.00161603
0.00211036
0.00269867
0.00328299
0.00367986
0.00389132
0.00395196
0.00389718
0.00378947
0.00361821
0.00343546
0.00325356
0.00308085
0.00292051
0.00277056
0.00262632
0.00248218
0.00233505
0.00218473
0.00203446
0.00184727
0.00199925
0.00189187
0.00176068
0.00159951
0.00141748
0.00123225
0.00109186
0.00106853
0.00123372
0.00158658
0.00210625
0.00272635
0.00335284
0.00374971
0.0039585
0.00401834
0.00396888
0.00386746
0.00370139
0.00352477
0.00334682
0.00317599
0.00301823
0.00287036
0.0027286
0.00258742
0.00244354
0.00229653
0.00214663
0.00195692
0.00233178
0.00221955
0.00207956
0.00190665
0.00170136
0.00147502
0.00126643
0.00115593
0.00123173
0.00157072
0.0021062
0.00275185
0.00338955
0.00378662
0.00399238
0.00405408
0.00401382
0.00392224
0.00376615
0.00359816
0.00342647
0.00325973
0.00310523
0.00296133
0.00282342
0.00268622
0.00254665
0.00240489
0.0022552
0.00206435
0.00265507
0.00254086
0.00239645
0.00221631
0.00199605
0.00174044
0.00148007
0.00129137
0.00128332
0.00156881
0.00210723
0.00276477
0.00337845
0.00378319
0.0039868
0.00405351
0.00402643
0.00394897
0.00380721
0.00365059
0.0034886
0.00332882
0.00317921
0.0030392
0.00290588
0.0027742
0.00264044
0.00250539
0.00235946
0.00216882
0.00294848
0.00283598
0.00269258
0.00251145
0.00228178
0.00200646
0.00170932
0.0014589
0.00137465
0.00159921
0.00210257
0.00273662
0.0033288
0.00373091
0.00393229
0.00400733
0.00399737
0.00393768
0.00381623
0.00367513
0.00352595
0.00337691
0.00323577
0.00310228
0.00297472
0.00284913
0.00272271
0.00259746
0.00245768
0.00226919
0.00318786
0.00308258
0.00294643
0.00276846
0.0025365
0.00225082
0.0019305
0.00163635
0.00149005
0.00163455
0.00209615
0.0026834
0.00323486
0.00361507
0.00381373
0.00390063
0.00391122
0.00387282
0.00377775
0.00365846
0.00352735
0.00339367
0.0032647
0.00314131
0.00302271
0.00290642
0.00279133
0.00267676
0.00254573
0.00236169
0.00335224
0.00325555
0.00313382
0.00296443
0.00273786
0.00245065
0.0021192
0.00179705
0.0015965
0.00165604
0.00206278
0.00257803
0.00306147
0.00341259
0.00360987
0.00371292
0.00374511
0.0037314
0.00366758
0.00357629
0.00347036
0.00335914
0.00324917
0.00314212
0.00303806
0.00293548
0.00283372
0.00273149
0.00261253
0.00243608
0.00344251
0.0033483
0.00323191
0.00307668
0.00286466
0.00258379
0.00225129
0.00191413
0.00166904
0.00164211
0.00195225
0.0023841
0.00279233
0.00310759
0.00330559
0.00342763
0.00347887
0.00349097
0.0034601
0.00340084
0.00332563
0.00324291
0.00315859
0.00307482
0.00299205
0.00290927
0.00282601
0.00274114
0.00263924
0.00247482
0.00344643
0.00335723
0.00324785
0.00310283
0.00290436
0.00263481
0.00231133
0.00197344
0.00169822
0.00159331
0.00176942
0.0021103
0.00245378
0.00273809
0.00293177
0.00306867
0.00313637
0.00316993
0.00316648
0.00313526
0.00308789
0.00303157
0.002973
0.00291455
0.0028565
0.00279765
0.00273691
0.00267358
0.00259535
0.0024498
0.00335997
0.00328561
0.00318843
0.0030542
0.00286456
0.00261387
0.00231657
0.0020033
0.00172924
0.00157675
0.00163318
0.00187199
0.00215561
0.00241492
0.00260191
0.00273736
0.00280832
0.00285112
0.00285913
0.00284119
0.00280738
0.00276517
0.00272238
0.00268152
0.00264265
0.00260368
0.00256152
0.0025166
0.00245636
0.00234018
0.00321054
0.00315844
0.00307797
0.00295924
0.00279307
0.00258211
0.00233851
0.00208475
0.00185585
0.0017047
0.00169122
0.00184152
0.00205624
0.00227219
0.00244205
0.00255916
0.00262073
0.0026599
0.0026656
0.00264779
0.0026149
0.00257421
0.00253249
0.00249274
0.00245522
0.00241857
0.00238044
0.00233823
0.00228255
0.00218658
0.0030591
0.00303621
0.00298502
0.00290016
0.00277748
0.00262199
0.00244818
0.00227115
0.00210893
0.00198676
0.00195281
0.00203635
0.00218012
0.00233616
0.00246663
0.0025547
0.0026014
0.00263136
0.0026336
0.00261704
0.00258798
0.00255301
0.00251631
0.00248048
0.00244529
0.00240877
0.00236875
0.00232098
0.00225753
0.00216258
0.00291635
0.00290637
0.00289237
0.00285507
0.00279031
0.00269666
0.0025906
0.00248042
0.00237593
0.00228805
0.00225521
0.00229319
0.00237415
0.0024689
0.00254625
0.00260205
0.00263202
0.00265197
0.00265454
0.0026461
0.00262993
0.00261302
0.00259566
0.00257965
0.00256345
0.00254467
0.0025215
0.00248744
0.00243652
0.00235989
0.00282678
0.00283215
0.00283446
0.00282107
0.00279145
0.00274721
0.00268845
0.00262372
0.00256188
0.00250913
0.00247971
0.00248527
0.00251546
0.00255595
0.00258911
0.00261624
0.00263167
0.00264118
0.00264463
0.00264519
0.00264612
0.00264667
0.00265083
0.00265733
0.00266448
0.00267003
0.00267516
0.00267053
0.00265634
0.00262772
0.000174072
0.00018345
0.000182788
0.000179528
0.000174471
0.000168432
0.000161977
0.000155469
0.000149105
0.000143048
0.000137332
0.000132075
0.000127264
0.000123129
0.000119692
0.000117115
0.000115076
0.000113583
0.000112756
0.000112268
0.000111059
0.000107989
0.000102345
9.39154e-05
8.32867e-05
7.05751e-05
6.50734e-05
0.000309193
7.64882e-05
8.43153e-05
0.000681419
0.000812357
0.000836968
0.000812081
0.000771686
0.000730327
0.000691909
0.00065764
0.000627253
0.000600554
0.00057613
0.000554412
0.000533285
0.000514997
0.000496455
0.000478364
0.000454878
0.000434215
0.000420664
0.000415832
0.00041598
0.000414448
0.000401031
0.000373099
0.000329971
0.000281992
0.000273776
0.000320514
0.000285674
0.000357826
0.00107085
0.00129775
0.00138879
0.0013993
0.00137169
0.00133026
0.00128541
0.00124189
0.00120126
0.00116474
0.00113118
0.00110172
0.00107262
0.00104658
0.00101769
0.000984978
0.000937009
0.000889106
0.000848628
0.000819802
0.000800458
0.000780791
0.000750686
0.000694236
0.00060977
0.000516476
0.000461181
0.000432874
0.0004213
0.000530389
0.00130621
0.00161244
0.00175132
0.00180017
0.0018033
0.00178013
0.00174613
0.00170918
0.00167326
0.00164137
0.00161366
0.00159174
0.00157015
0.00154945
0.00152088
0.00148117
0.00141476
0.00134181
0.0012721
0.00121446
0.00116913
0.00112807
0.00107468
0.000991287
0.000871774
0.000735949
0.000633922
0.000558461
0.000519714
0.000613714
0.00141544
0.00171983
0.00192414
0.00204568
0.00208855
0.00209575
0.00208245
0.00206194
0.00204101
0.0020246
0.00201462
0.00201279
0.00201025
0.00200465
0.00198415
0.00194257
0.00186147
0.00176419
0.00166572
0.00157975
0.00150818
0.00144421
0.0013702
0.00126473
0.00111878
0.000949413
0.000808323
0.000698068
0.000628694
0.000681859
0.00146036
0.00175344
0.00198639
0.00214537
0.00224443
0.00229635
0.0023145
0.00231772
0.00232026
0.00232858
0.00234669
0.00237514
0.00240219
0.00241942
0.00241108
0.00236987
0.00227471
0.00215272
0.0020258
0.0019128
0.00181678
0.00173171
0.0016401
0.00151762
0.00135276
0.0011588
0.000986228
0.000849675
0.000753776
0.000770374
0.00142989
0.00172243
0.001983
0.00217776
0.0023143
0.00240175
0.0024545
0.00249068
0.00252467
0.00256608
0.00262277
0.00269122
0.00275627
0.00280193
0.00280768
0.00276667
0.00265606
0.00250846
0.00235368
0.00221518
0.00209709
0.00199345
0.00188715
0.00175223
0.00157449
0.00136319
0.00116651
0.00100903
0.000892395
0.00088397
0.00134069
0.00161557
0.00189059
0.00212124
0.00230102
0.00242692
0.00251951
0.00259278
0.00266513
0.00274703
0.00285362
0.00297123
0.00308087
0.00315922
0.00317919
0.00313542
0.00300728
0.00283337
0.00265172
0.00248966
0.00235205
0.00223252
0.0021142
0.00197004
0.00178442
0.00156225
0.00134716
0.00117277
0.00104114
0.00101524
0.00121684
0.00146057
0.00174013
0.00199789
0.00221163
0.00237846
0.00251662
0.00263302
0.00275095
0.00288262
0.00304938
0.00322264
0.00338292
0.0034954
0.00352819
0.00347699
0.00332968
0.00312958
0.00292265
0.00273939
0.00258487
0.00245198
0.00232378
0.00217282
0.00198311
0.00175546
0.00152796
0.00133959
0.00119744
0.0011589
0.00109348
0.00128549
0.0015507
0.00182557
0.00207031
0.00227594
0.0024543
0.00261856
0.00278994
0.00298023
0.0032071
0.00345074
0.00366708
0.00381253
0.00385539
0.00379186
0.00362377
0.00339898
0.00316924
0.00296765
0.0027988
0.0026551
0.00251791
0.00236242
0.00217121
0.00194275
0.00170943
0.00150885
0.00135956
0.00131165
0.000994686
0.00112375
0.00135043
0.00162358
0.00189077
0.00213166
0.00235133
0.00256366
0.00278979
0.00304689
0.00335031
0.00366577
0.00393389
0.00411044
0.00415964
0.00407989
0.00389011
0.00364347
0.00339439
0.00317775
0.00299717
0.00284481
0.00269983
0.00254105
0.00235025
0.00212492
0.00188948
0.00168053
0.00152614
0.00147096
0.000940745
0.00100564
0.00117643
0.00142101
0.00169264
0.00196011
0.00221894
0.0024807
0.00276585
0.00308983
0.00348294
0.00387314
0.00418421
0.00438751
0.00443826
0.00434018
0.00412965
0.00386538
0.00360112
0.00337302
0.00318322
0.00302366
0.00287229
0.00271114
0.00252205
0.00230125
0.00206692
0.00185433
0.00169577
0.00163474
0.000945533
0.000958045
0.00106491
0.00125616
0.00150462
0.00178172
0.00207173
0.00238101
0.00272709
0.00312522
0.00360755
0.00406789
0.00441793
0.00464129
0.004689
0.00457157
0.00434385
0.00406716
0.00379253
0.00355646
0.00336011
0.00319376
0.00303758
0.00287498
0.00268838
0.00247268
0.00224222
0.00202923
0.00186804
0.00180142
0.0010331
0.000999864
0.00103868
0.00117139
0.0013651
0.00162531
0.00192929
0.00227806
0.00268219
0.0031669
0.00372416
0.00424132
0.00463702
0.0048677
0.00490861
0.00477289
0.00453424
0.00425114
0.0039713
0.00373068
0.00352981
0.00335741
0.00319781
0.0030346
0.00285076
0.00264107
0.00241695
0.00220614
0.00204265
0.00196977
0.00121835
0.00115761
0.00114059
0.00118324
0.0013135
0.0015272
0.00181609
0.0021876
0.00264683
0.0032156
0.00382644
0.00439246
0.00483068
0.00506059
0.00509316
0.00494294
0.00470207
0.00441889
0.00413928
0.00389767
0.00369345
0.00351622
0.0033546
0.00319142
0.00301158
0.0028083
0.00259226
0.00238602
0.00221936
0.00213859
0.00150527
0.00142483
0.00137072
0.00134415
0.00137352
0.00149946
0.00175807
0.00213011
0.00263871
0.00325629
0.00390449
0.00452547
0.00498115
0.00521311
0.00523826
0.00508029
0.00484743
0.00457065
0.00429691
0.00405759
0.00385155
0.00367091
0.0035086
0.00334693
0.00317209
0.00297683
0.00276921
0.00256885
0.00239777
0.00230653
0.00187888
0.00178362
0.00169895
0.0016187
0.00156432
0.00158022
0.00174156
0.00210267
0.00263025
0.00327866
0.00396767
0.00463503
0.0050911
0.00531903
0.00533924
0.00518289
0.00496828
0.00470458
0.00444239
0.00420856
0.00400316
0.00382085
0.00365849
0.00350024
0.00333148
0.00314501
0.00294722
0.00275326
0.00257734
0.00247132
0.00230616
0.00219796
0.00208734
0.00196519
0.0018447
0.00176992
0.00181708
0.00209511
0.0026219
0.00329566
0.00401101
0.00470112
0.0051499
0.00537086
0.00539067
0.00524672
0.0050599
0.00481589
0.00457104
0.00434624
0.00414482
0.0039635
0.00380033
0.00364577
0.00348564
0.00330932
0.00312146
0.00293435
0.00275509
0.00263092
0.00274677
0.00262616
0.00249338
0.00233875
0.00216912
0.00202019
0.00197009
0.00214241
0.0026241
0.0033041
0.00404126
0.00468859
0.0051455
0.00536015
0.00538587
0.00526537
0.00511346
0.00489593
0.00467412
0.00446328
0.00426936
0.00409285
0.00393256
0.00378054
0.00362433
0.00345826
0.00328166
0.00310167
0.00292292
0.0027819
0.00316337
0.00303069
0.00287942
0.00269989
0.00249469
0.002291
0.0021628
0.00222184
0.00262913
0.00327506
0.00398273
0.00462816
0.00506781
0.0052776
0.00531638
0.0052295
0.00511515
0.00493153
0.00473776
0.0045464
0.00436571
0.00419838
0.0040443
0.00389779
0.00374854
0.00359086
0.00342186
0.00324755
0.00307405
0.002921
0.00352606
0.00338224
0.00321615
0.00301807
0.0027874
0.00254459
0.002353
0.00232209
0.00264657
0.00321666
0.00388109
0.00448981
0.00490288
0.00511335
0.00517227
0.00512602
0.0050489
0.00490451
0.00474247
0.0045758
0.00441333
0.00426019
0.00411774
0.00398149
0.00384249
0.00369507
0.00353487
0.00336769
0.00319987
0.00304104
0.00381216
0.00365943
0.00348255
0.00327132
0.003023
0.00275246
0.00251271
0.0024108
0.00260386
0.00312409
0.00371365
0.00425618
0.00464235
0.00486085
0.00494556
0.00494235
0.00490001
0.00479592
0.00466671
0.0045268
0.00438776
0.00425462
0.0041295
0.00400896
0.00388515
0.00375206
0.00360378
0.0034454
0.00328676
0.00312796
0.00400455
0.00384744
0.00366488
0.0034461
0.00318707
0.00289797
0.00262186
0.0024533
0.0025124
0.00293003
0.00344884
0.00393179
0.00429702
0.00452746
0.00464099
0.00467805
0.00466549
0.00459794
0.00450165
0.00439014
0.00427574
0.0041646
0.00405958
0.00395812
0.0038533
0.00373877
0.00361
0.00346474
0.0033157
0.00316084
0.00409367
0.00393948
0.00375798
0.00353904
0.00327756
0.00298001
0.00268048
0.00245467
0.00240457
0.00267134
0.00311553
0.00355216
0.00390923
0.00415546
0.00429373
0.00436263
0.00437369
0.00433658
0.00426796
0.00418113
0.00408803
0.00399582
0.00390837
0.00382421
0.00373758
0.0036422
0.00353383
0.00341042
0.00327176
0.00311981
0.00408113
0.0039404
0.00377063
0.00356268
0.00331113
0.00302078
0.00271908
0.00246386
0.00233948
0.00246588
0.00280756
0.00320248
0.00355111
0.00381338
0.00396887
0.00405645
0.00408182
0.00406481
0.00401482
0.00394462
0.00386542
0.00378467
0.00370727
0.003633
0.0035575
0.00347523
0.00338202
0.003276
0.00315493
0.00300183
0.00398996
0.00387634
0.00373311
0.0035519
0.00332725
0.00306553
0.00279081
0.00254598
0.00239159
0.00241847
0.00265595
0.0029864
0.0033057
0.00356795
0.00372808
0.00381749
0.00384681
0.00383877
0.00379872
0.003738
0.00366688
0.00359216
0.00351879
0.00344773