/*--------------------------------*- C++ -*----------------------------------*\
| =========                 |                                                 |
| \\      /  F ield         | OpenFOAM: The Open Source CFD Toolbox           |
|  \\    /   O peration     | Version:  5.0                                   |
|   \\  /    A nd           | Web:      www.OpenFOAM.org                      |
|    \\/     M anipulation  |                                                 |
\*---------------------------------------------------------------------------*/
FoamFile
{
    version     2.0;
    format      ascii;
    class       volScalarField;
    location    "1200/porous";
    object      T;
}
// * * * * * * * * * * * * * * * * * * * * * * * * * * * * * * * * * * * * * //

dimensions      [0 0 0 1 0 0 0];

internalField   nonuniform List<scalar> 
36000
(
400
400
400
400
399.999
399.584
399.207
398.856
398.521
398.199
397.886
397.579
397.277
396.98
396.686
396.396
396.109
395.825
395.544
395.265
394.989
394.713
394.438
394.161
393.884
393.608
393.333
393.06
392.79
392.525
392.264
392.009
391.762
391.527
391.312
391.833
392.186
392.455
392.674
392.86
400
400
400
400
399.999
399.633
399.302
398.995
398.705
398.428
398.162
397.903
397.65
397.403
397.16
396.922
396.688
396.457
396.23
396.005
395.783
395.563
395.343
395.122
394.902
394.682
394.464
394.249
394.036
393.826
393.621
393.421
393.227
393.042
392.868
393.212
393.453
393.639
393.788
393.919
400
400
400
400
399.999
399.64
399.317
399.019
398.74
398.476
398.222
397.978
397.741
397.511
397.287
397.068
396.854
396.644
396.439
396.237
396.038
395.842
395.646
395.451
395.255
395.061
394.87
394.68
394.494
394.311
394.133
393.96
393.794
393.636
393.487
393.804
394.03
394.205
394.345
394.466
400
400
400
400
399.999
399.639
399.317
399.02
398.742
398.479
398.228
397.987
397.754
397.528
397.308
397.094
396.886
396.682
396.484
396.289
396.098
395.91
395.722
395.534
395.347
395.161
394.978
394.797
394.62
394.447
394.278
394.115
393.958
393.809
393.67
393.981
394.206
394.38
394.521
394.641
400
400
400
400
399.999
399.639
399.317
399.02
398.743
398.48
398.23
397.989
397.756
397.531
397.313
397.1
396.893
396.692
396.495
396.303
396.115
395.928
395.743
395.557
395.373
395.19
395.009
394.831
394.657
394.486
394.321
394.161
394.007
393.862
393.726
394.035
394.26
394.433
394.575
394.695
400
400
400
400
399.999
399.639
399.316
399.019
398.741
398.478
398.227
397.986
397.754
397.529
397.311
397.098
396.892
396.691
396.495
396.304
396.116
395.931
395.746
395.561
395.377
395.194
395.014
394.837
394.664
394.494
394.329
394.17
394.018
393.874
393.739
394.048
394.272
394.445
394.587
394.707
400
400
400
400
399.999
399.639
399.316
399.019
398.742
398.479
398.228
397.987
397.755
397.531
397.313
397.101
396.894
396.694
396.499
396.308
396.121
395.936
395.751
395.566
395.382
395.2
395.021
394.844
394.67
394.501
394.337
394.178
394.026
393.882
393.747
394.056
394.28
394.453
394.595
394.715
400
400
400
400
399.999
399.639
399.316
399.02
398.742
398.48
398.229
397.988
397.756
397.532
397.314
397.102
396.896
396.696
396.501
396.311
396.125
395.94
395.755
395.57
395.386
395.204
395.024
394.848
394.674
394.505
394.341
394.182
394.03
393.886
393.751
394.059
394.283
394.456
394.598
394.718
400
400
400
400
399.999
399.639
399.317
399.021
398.744
398.482
398.232
397.992
397.76
397.536
397.319
397.108
396.902
396.703
396.509
396.319
396.132
395.947
395.762
395.577
395.393
395.211
395.032
394.856
394.683
394.513
394.349
394.19
394.038
393.893
393.758
394.067
394.29
394.464
394.605
394.725
400
400
400
400
399.999
399.64
399.318
399.023
398.747
398.485
398.235
397.995
397.764
397.54
397.324
397.113
396.908
396.709
396.515
396.325
396.138
395.952
395.767
395.583
395.4
395.218
395.039
394.863
394.689
394.52
394.356
394.197
394.044
393.9
393.764
394.072
394.296
394.469
394.61
394.73
400
400
400
400
399.999
399.641
399.32
399.025
398.75
398.489
398.239
398
397.769
397.546
397.33
397.121
396.917
396.718
396.524
396.333
396.144
395.959
395.774
395.591
395.408
395.227
395.048
394.872
394.699
394.53
394.365
394.206
394.053
393.908
393.772
394.08
394.303
394.476
394.617
394.737
400
400
400
400
399.999
399.641
399.321
399.027
398.752
398.492
398.243
398.004
397.774
397.551
397.336
397.127
396.924
396.725
396.53
396.337
396.148
395.962
395.778
395.595
395.413
395.233
395.054
394.878
394.706
394.536
394.372
394.212
394.059
393.913
393.776
394.085
394.308
394.481
394.622
394.742
400
400
400
400
399.999
399.642
399.323
399.03
398.756
398.495
398.247
398.008
397.778
397.556
397.341
397.133
396.93
396.731
396.535
396.341
396.15
395.964
395.781
395.599
395.418
395.239
395.061
394.885
394.712
394.543
394.378
394.219
394.065
393.918
393.78
394.088
394.312
394.485
394.626
394.745
400
400
400
400
399.999
399.644
399.325
399.032
398.758
398.498
398.25
398.011
397.781
397.559
397.344
397.136
396.933
396.734
396.536
396.342
396.15
395.963
395.78
395.6
395.42
395.242
395.064
394.889
394.717
394.547
394.383
394.223
394.068
393.92
393.78
394.089
394.313
394.486
394.627
394.747
400
400
400
400
399.999
399.644
399.326
399.034
398.76
398.501
398.252
398.013
397.783
397.561
397.346
397.138
396.935
396.735
396.537
396.342
396.15
395.963
395.78
395.601
395.422
395.244
395.067
394.892
394.72
394.551
394.386
394.225
394.071
393.922
393.781
394.09
394.314
394.487
394.628
394.748
400
400
400
400
399.999
399.646
399.329
399.038
398.764
398.504
398.255
398.016
397.785
397.562
397.347
397.138
396.934
396.735
396.537
396.342
396.15
395.963
395.781
395.601
395.423
395.246
395.07
394.895
394.723
394.553
394.388
394.227
394.071
393.92
393.777
394.087
394.311
394.485
394.627
394.747
400
400
400
400
399.999
399.647
399.331
399.039
398.766
398.505
398.256
398.016
397.785
397.561
397.345
397.136
396.932
396.733
396.536
396.341
396.15
395.963
395.781
395.602
395.424
395.246
395.07
394.895
394.723
394.553
394.387
394.226
394.069
393.918
393.774
394.084
394.309
394.483
394.624
394.744
400
400
400
400
399.999
399.649
399.333
399.042
398.768
398.507
398.258
398.017
397.785
397.561
397.344
397.134
396.93
396.731
396.535
396.341
396.151
395.965
395.783
395.603
395.424
395.246
395.07
394.895
394.722
394.552
394.385
394.223
394.066
393.914
393.769
394.08
394.305
394.479
394.621
394.741
400
400
400
400
399.999
399.65
399.335
399.044
398.769
398.509
398.259
398.018
397.785
397.56
397.342
397.131
396.927
396.728
396.533
396.34
396.151
395.966
395.783
395.602
395.422
395.244
395.067
394.892
394.718
394.548
394.38
394.217
394.059
393.906
393.76
394.072
394.297
394.472
394.614
394.734
400
400
400
400
399.999
399.651
399.336
399.045
398.77
398.509
398.259
398.018
397.785
397.559
397.341
397.129
396.924
396.725
396.531
396.34
396.152
395.967
395.783
395.601
395.42
395.24
395.063
394.887
394.713
394.542
394.374
394.21
394.051
393.898
393.752
394.064
394.29
394.465
394.608
394.728
400
400
400
400
399.999
399.651
399.337
399.045
398.771
398.51
398.259
398.017
397.784
397.558
397.339
397.126
396.921
396.722
396.528
396.338
396.15
395.964
395.779
395.596
395.414
395.234
395.055
394.879
394.705
394.533
394.365
394.201
394.041
393.887
393.74
394.053
394.28
394.455
394.598
394.719
400
400
400
400
399.999
399.651
399.337
399.046
398.771
398.51
398.259
398.017
397.784
397.557
397.338
397.125
396.919
396.72
396.526
396.337
396.149
395.962
395.777
395.592
395.41
395.229
395.05
394.873
394.698
394.526
394.358
394.193
394.033
393.879
393.731
394.045
394.273
394.448
394.591
394.712
400
400
400
400
399.999
399.652
399.337
399.046
398.772
398.51
398.259
398.017
397.783
397.556
397.336
397.123
396.917
396.717
396.524
396.334
396.145
395.958
395.772
395.587
395.403
395.222
395.043
394.866
394.691
394.518
394.349
394.184
394.023
393.869
393.721
394.036
394.264
394.44
394.583
394.704
400
400
400
400
399.999
399.652
399.338
399.047
398.773
398.511
398.26
398.018
397.784
397.557
397.337
397.124
396.917
396.718
396.524
396.334
396.145
395.957
395.77
395.584
395.401
395.219
395.04
394.862
394.687
394.515
394.345
394.18
394.019
393.864
393.716
394.031
394.259
394.435
394.579
394.7
400
400
400
400
399.999
399.652
399.338
399.047
398.773
398.511
398.26
398.017
397.783
397.556
397.336
397.123
396.916
396.716
396.522
396.331
396.141
395.952
395.765
395.579
395.396
395.214
395.034
394.856
394.681
394.508
394.338
394.172
394.011
393.855
393.707
394.023
394.251
394.427
394.571
394.693
400
400
400
400
399.999
399.653
399.34
399.049
398.775
398.513
398.262
398.02
397.785
397.558
397.338
397.124
396.917
396.717
396.522
396.33
396.139
395.95
395.762
395.576
395.392
395.209
395.029
394.85
394.674
394.5
394.33
394.163
394.001
393.844
393.695
394.011
394.239
394.416
394.559
394.68
400
400
400
400
399.999
399.653
399.339
399.048
398.774
398.512
398.26
398.017
397.781
397.553
397.332
397.117
396.909
396.707
396.509
396.314
396.122
395.93
395.74
395.552
395.365
395.18
394.997
394.816
394.638
394.462
394.288
394.118
393.953
393.793
393.64
393.958
394.186
394.363
394.506
394.627
400
400
400
400
399.999
399.654
399.339
399.047
398.77
398.506
398.252
398.006
397.767
397.534
397.308
397.088
396.874
396.666
396.462
396.26
396.06
395.861
395.663
395.468
395.273
395.08
394.889
394.7
394.512
394.327
394.145
393.966
393.79
393.621
393.459
393.781
394.012
394.189
394.331
394.454
400
400
400
400
399.999
399.646
399.324
399.021
398.734
398.457
398.189
397.928
397.673
397.423
397.179
396.939
396.705
396.476
396.25
396.026
395.802
395.58
395.359
395.138
394.919
394.701
394.484
394.269
394.056
393.844
393.635
393.428
393.226
393.029
392.84
393.19
393.436
393.624
393.774
393.907
400
400
400
400
399.999
399.598
399.23
398.883
398.55
398.227
397.912
397.603
397.298
396.998
396.702
396.41
396.124
395.842
395.562
395.284
395.006
394.729
394.453
394.177
393.902
393.628
393.355
393.084
392.814
392.547
392.281
392.019
391.762
391.511
391.274
391.805
392.164
392.435
392.657
392.844
400
400
400
400
399.999
399.779
399.528
399.26
398.981
398.698
398.412
398.126
397.84
397.556
397.272
396.99
396.71
396.431
396.154
395.879
395.605
395.332
395.059
394.785
394.511
394.237
393.964
393.692
393.423
393.156
392.893
392.635
392.383
392.141
391.912
392.159
392.395
392.605
392.791
392.954
400
400
400
400
400
399.81
399.599
399.373
399.141
398.906
398.67
398.434
398.2
397.968
397.738
397.51
397.285
397.061
396.84
396.621
396.404
396.189
395.974
395.759
395.544
395.33
395.116
394.904
394.694
394.486
394.282
394.081
393.885
393.696
393.514
393.628
393.749
393.867
393.974
394.074
400
400
400
400
400
399.815
399.61
399.393
399.171
398.947
398.724
398.503
398.284
398.069
397.857
397.648
397.442
397.24
397.04
396.844
396.65
396.458
396.267
396.077
395.887
395.699
395.511
395.326
395.142
394.961
394.784
394.61
394.441
394.279
394.123
394.225
394.334
394.44
394.537
394.629
400
400
400
400
400
399.814
399.609
399.393
399.172
398.95
398.729
398.511
398.296
398.084
397.876
397.672
397.472
397.275
397.082
396.892
396.706
396.521
396.338
396.156
395.974
395.794
395.615
395.438
395.263
395.092
394.923
394.759
394.6
394.447
394.3
394.401
394.509
394.614
394.711
394.802
400
400
400
400
400
399.814
399.609
399.393
399.172
398.95
398.73
398.512
398.298
398.087
397.881
397.678
397.479
397.284
397.093
396.905
396.721
396.539
396.358
396.178
395.999
395.821
395.645
395.471
395.299
395.13
394.965
394.804
394.648
394.498
394.355
394.455
394.563
394.668
394.766
394.857
400
400
400
400
400
399.814
399.608
399.392
399.17
398.948
398.727
398.509
398.295
398.084
397.878
397.675
397.476
397.282
397.091
396.904
396.721
396.54
396.359
396.18
396.001
395.824
395.649
395.475
395.304
395.136
394.972
394.812
394.657
394.508
394.366
394.467
394.574
394.679
394.777
394.868
400
400
400
400
400
399.814
399.608
399.392
399.171
398.949
398.728
398.51
398.296
398.085
397.879
397.677
397.478
397.284
397.094
396.907
396.724
396.544
396.364
396.185
396.006
395.829
395.654
395.481
395.31
395.143
394.979
394.819
394.664
394.515
394.373
394.474
394.582
394.687
394.785
394.876
400
400
400
400
400
399.814
399.608
399.392
399.17
398.948
398.728
398.51
398.295
398.085
397.879
397.677
397.479
397.285
397.095
396.909
396.726
396.545
396.366
396.186
396.008
395.831
395.656
395.483
395.313
395.145
394.981
394.822
394.667
394.518
394.376
394.477
394.585
394.689
394.788
394.879
400
400
400
400
400
399.814
399.609
399.393
399.172
398.95
398.73
398.512
398.298
398.088
397.883
397.681
397.483
397.29
397.1
396.915
396.732
396.551
396.372
396.193
396.015
395.838
395.663
395.49
395.32
395.153
394.989
394.829
394.674
394.525
394.383
394.484
394.592
394.696
394.794
394.885
400
400
400
400
400
399.814
399.609
399.393
399.173
398.951
398.731
398.514
398.301
398.091
397.886
397.684
397.487
397.294
397.105
396.92
396.737
396.556
396.376
396.198
396.02
395.843
395.669
395.496
395.326
395.158
394.994
394.835
394.68
394.531
394.388
394.489
394.597
394.701
394.799
394.89
400
400
400
400
400
399.815
399.61
399.395
399.175
398.954
398.734
398.518
398.305
398.096
397.891
397.69
397.494
397.301
397.113
396.927
396.743
396.562
396.383
396.204
396.027
395.851
395.676
395.504
395.334
395.167
395.003
394.843
394.688
394.539
394.396
394.497
394.604
394.708
394.806
394.897
400
400
400
400
400
399.815
399.611
399.396
399.176
398.956
398.736
398.52
398.308
398.099
397.895
397.695
397.499
397.307
397.118
396.931
396.747
396.565
396.386
396.208
396.031
395.856
395.682
395.509
395.34
395.172
395.009
394.849
394.694
394.544
394.401
394.501
394.608
394.713
394.811
394.902
400
400
400
400
400
399.816
399.612
399.398
399.178
398.958
398.739
398.523
398.311
398.103
397.899
397.7
397.504
397.312
397.122
396.935
396.75
396.568
396.389
396.211
396.035
395.86
395.687
395.515
395.345
395.178
395.015
394.855
394.699
394.549
394.405
394.505
394.612
394.717
394.815
394.906
400
400
400
400
400
399.816
399.613
399.399
399.18
398.96
398.742
398.526
398.313
398.105
397.902
397.702
397.507
397.314
397.124
396.936
396.75
396.568
396.389
396.212
396.037
395.862
395.689
395.518
395.349
395.182
395.018
394.858
394.702
394.551
394.406
394.506
394.614
394.718
394.816
394.907
400
400
400
400
400
399.817
399.614
399.4
399.181
398.962
398.743
398.527
398.315
398.107
397.903
397.704
397.508
397.315
397.125
396.936
396.751
396.568
396.389
396.212
396.038
395.864
395.691
395.52
395.351
395.185
395.021
394.861
394.705
394.553
394.407
394.508
394.615
394.719
394.817
394.908
400
400
400
400
400
399.818
399.616
399.402
399.184
398.965
398.746
398.53
398.317
398.108
397.904
397.704
397.508
397.316
397.125
396.937
396.751
396.568
396.389
396.213
396.039
395.865
395.693
395.522
395.353
395.187
395.023
394.862
394.705
394.553
394.405
394.506
394.613
394.718
394.816
394.907
400
400
400
400
400
399.818
399.616
399.403
399.185
398.966
398.747
398.531
398.318
398.108
397.904
397.703
397.507
397.314
397.124
396.936
396.75
396.568
396.389
396.213
396.039
395.866
395.693
395.523
395.354
395.187
395.023
394.861
394.704
394.551
394.403
394.503
394.611
394.716
394.814
394.905
400
400
400
400
400
399.819
399.618
399.405
399.187
398.967
398.748
398.532
398.318
398.109
397.903
397.702
397.506
397.313
397.123
396.936
396.751
396.569
396.391
396.214
396.039
395.866
395.694
395.523
395.353
395.186
395.022
394.86
394.702
394.549
394.4
394.5
394.607
394.712
394.81
394.902
400
400
400
400
400
399.82
399.619
399.406
399.188
398.969
398.75
398.533
398.319
398.109
397.903
397.701
397.504
397.311
397.122
396.935
396.751
396.569
396.391
396.214
396.038
395.864
395.692
395.52
395.351
395.183
395.018
394.856
394.697
394.543
394.393
394.493
394.601
394.706
394.804
394.895
400
400
400
400
400
399.82
399.62
399.407
399.189
398.97
398.75
398.533
398.319
398.109
397.902
397.7
397.503
397.31
397.12
396.934
396.751
396.57
396.391
396.213
396.037
395.862
395.689
395.517
395.347
395.179
395.013
394.85
394.691
394.536
394.386
394.487
394.595
394.7
394.798
394.89
400
400
400
400
400
399.82
399.62
399.408
399.19
398.97
398.75
398.533
398.319
398.108
397.901
397.698
397.5
397.307
397.118
396.932
396.749
396.568
396.388
396.21
396.033
395.857
395.683
395.511
395.34
395.172
395.005
394.842
394.683
394.527
394.376
394.477
394.585
394.691
394.789
394.881
400
400
400
400
400
399.82
399.62
399.408
399.191
398.971
398.751
398.534
398.319
398.108
397.901
397.698
397.5
397.306
397.117
396.932
396.749
396.567
396.387
396.208
396.03
395.854
395.68
395.507
395.336
395.167
395
394.836
394.676
394.52
394.37
394.47
394.579
394.684
394.783
394.875
400
400
400
400
400
399.82
399.621
399.409
399.191
398.971
398.751
398.534
398.319
398.108
397.9
397.697
397.498
397.305
397.115
396.93
396.746
396.564
396.383
396.204
396.026
395.849
395.674
395.501
395.329
395.16
394.993
394.829
394.668
394.512
394.361
394.462
394.57
394.676
394.775
394.867
400
400
400
400
400
399.821
399.621
399.41
399.192
398.972
398.753
398.535
398.321
398.109
397.902
397.699
397.5
397.306
397.117
396.931
396.747
396.564
396.383
396.203
396.025
395.848
395.673
395.499
395.328
395.158
394.991
394.826
394.665
394.509
394.357
394.458
394.567
394.673
394.772
394.864
400
400
400
400
400
399.821
399.621
399.41
399.192
398.973
398.753
398.535
398.32
398.109
397.901
397.698
397.499
397.305
397.115
396.929
396.744
396.561
396.38
396.199
396.021
395.843
395.668
395.494
395.322
395.152
394.984
394.82
394.658
394.501
394.349
394.451
394.559
394.665
394.764
394.856
400
400
400
400
400
399.821
399.622
399.411
399.194
398.975
398.756
398.538
398.323
398.112
397.904
397.701
397.502
397.307
397.117
396.93
396.744
396.56
396.378
396.197
396.018
395.84
395.664
395.489
395.317
395.146
394.978
394.812
394.65
394.492
394.339
394.44
394.548
394.654
394.753
394.844
400
400
400
400
400
399.821
399.622
399.411
399.194
398.974
398.754
398.536
398.32
398.108
397.899
397.694
397.494
397.297
397.105
396.916
396.728
396.542
396.357
396.174
395.993
395.813
395.634
395.457
395.281
395.108
394.937
394.768
394.603
394.441
394.285
394.386
394.495
394.6
394.699
394.791
400
400
400
400
400
399.822
399.623
399.41
399.192
398.97
398.748
398.526
398.307
398.091
397.877
397.668
397.462
397.26
397.061
396.865
396.67
396.477
396.285
396.094
395.905
395.717
395.53
395.344
395.16
394.978
394.798
394.62
394.445
394.274
394.109
394.211
394.32
394.427
394.526
394.618
400
400
400
400
400
399.817
399.611
399.391
399.161
398.927
398.692
398.456
398.221
397.988
397.756
397.528
397.302
397.079
396.859
396.64
396.423
396.206
395.99
395.775
395.561
395.347
395.135
394.923
394.713
394.504
394.297
394.092
393.89
393.692
393.5
393.614
393.736
393.855
393.962
394.064
400
400
400
400
399.999
399.787
399.542
399.278
399.002
398.72
398.434
398.147
397.86
397.573
397.288
397.005
396.724
396.446
396.17
395.896
395.621
395.347
395.074
394.8
394.528
394.256
393.984
393.714
393.445
393.177
392.911
392.648
392.388
392.134
391.889
392.138
392.375
392.587
392.775
392.939
400
400
400
400
400
399.862
399.702
399.523
399.328
399.119
398.899
398.671
398.435
398.193
397.948
397.698
397.447
397.193
396.938
396.683
396.426
396.169
395.91
395.65
395.389
395.127
394.864
394.602
394.34
394.08
393.822
393.567
393.316
393.072
392.838
392.911
393.006
393.109
393.215
393.314
400
400
400
400
400
399.881
399.747
399.6
399.442
399.274
399.099
398.918
398.733
398.544
398.352
398.159
397.964
397.768
397.572
397.375
397.179
396.982
396.785
396.587
396.388
396.189
395.99
395.792
395.594
395.397
395.202
395.009
394.819
394.634
394.453
394.454
394.469
394.495
394.526
394.561
400
400
400
400
400
399.884
399.754
399.613
399.462
399.304
399.14
398.972
398.801
398.627
398.452
398.276
398.1
397.924
397.749
397.574
397.4
397.226
397.053
396.879
396.705
396.532
396.359
396.186
396.015
395.845
395.677
395.512
395.35
395.191
395.037
395.039
395.052
395.074
395.1
395.131
400
400
400
400
400
399.884
399.754
399.613
399.463
399.306
399.144
398.978
398.81
398.64
398.469
398.297
398.126
397.956
397.786
397.617
397.45
397.283
397.117
396.951
396.785
396.62
396.455
396.291
396.128
395.967
395.809
395.653
395.499
395.35
395.206
395.21
395.225
395.248
395.276
395.308
400
400
400
400
400
399.884
399.754
399.613
399.464
399.307
399.145
398.98
398.812
398.643
398.473
398.303
398.133
397.964
397.796
397.629
397.464
397.299
397.135
396.971
396.808
396.645
396.483
396.322
396.162
396.004
395.848
395.695
395.545
395.399
395.258
395.264
395.279
395.303
395.331
395.364
400
400
400
400
400
399.883
399.754
399.613
399.462
399.305
399.143
398.977
398.809
398.64
398.47
398.299
398.13
397.961
397.793
397.627
397.462
397.299
397.135
396.972
396.809
396.647
396.485
396.325
396.166
396.009
395.854
395.702
395.553
395.408
395.267
395.274
395.29
395.314
395.342
395.376
400
400
400
400
400
399.883
399.754
399.613
399.463
399.306
399.144
398.978
398.81
398.64
398.47
398.3
398.131
397.962
397.795
397.629
397.465
397.302
397.138
396.975
396.813
396.651
396.489
396.329
396.171
396.014
395.859
395.707
395.559
395.414
395.274
395.28
395.297
395.321
395.349
395.383
400
400
400
400
400
399.883
399.754
399.613
399.462
399.305
399.143
398.977
398.809
398.64
398.47
398.3
398.13
397.962
397.795
397.629
397.465
397.302
397.139
396.976
396.813
396.651
396.49
396.33
396.172
396.015
395.86
395.709
395.56
395.415
395.275
395.282
395.298
395.322
395.351
395.385
400
400
400
400
400
399.884
399.754
399.613
399.463
399.306
399.144
398.979
398.811
398.642
398.472
398.303
398.133
397.966
397.799
397.634
397.47
397.306
397.143
396.981
396.818
396.656
396.496
396.336
396.178
396.021
395.866
395.715
395.566
395.422
395.281
395.288
395.304
395.328
395.357
395.391
400
400
400
400
400
399.884
399.754
399.614
399.464
399.307
399.145
398.98
398.812
398.643
398.474
398.305
398.136
397.968
397.802
397.637
397.473
397.309
397.146
396.984
396.822
396.66
396.499
396.34
396.181
396.025
395.871
395.719
395.57
395.426
395.285
395.292
395.308
395.332
395.361
395.395
400
400
400
400
400
399.884
399.755
399.615
399.465
399.309
399.147
398.982
398.815
398.647
398.478
398.309
398.141
397.974
397.807
397.642
397.478
397.314
397.152
396.989
396.828
396.666
396.506
396.346
396.188
396.032
395.878
395.726
395.577
395.433
395.292
395.299
395.315
395.339
395.368
395.401
400
400
400
400
400
399.884
399.755
399.615
399.466
399.31
399.149
398.984
398.817
398.649
398.48
398.312
398.144
397.977
397.811
397.645
397.48
397.317
397.154
396.992
396.831
396.67
396.51
396.35
396.193
396.036
395.882
395.73
395.582
395.437
395.296
395.302
395.319
395.342
395.371
395.405
400
400
400
400
400
399.885
399.756
399.616
399.468
399.312
399.151
398.986
398.819
398.652
398.483
398.315
398.148
397.981
397.815
397.649
397.483
397.32
397.157
396.995
396.834
396.674
396.514
396.355
396.197
396.041
395.887
395.735
395.587
395.441
395.3
395.306
395.323
395.346
395.375
395.409
400
400
400
400
400
399.885
399.757
399.617
399.469
399.313
399.152
398.988
398.821
398.653
398.485
398.317
398.15
397.983
397.816
397.65
397.484
397.32
397.157
396.996
396.835
396.675
396.515
396.357
396.199
396.044
395.89
395.738
395.589
395.444
395.302
395.308
395.324
395.348
395.377
395.41
400
400
400
400
400
399.885
399.757
399.618
399.47
399.314
399.153
398.989
398.822
398.654
398.486
398.318
398.151
397.984
397.817
397.65
397.485
397.32
397.158
396.996
396.836
396.676
396.517
396.359
396.201
396.046
395.892
395.74
395.591
395.445
395.303
395.309
395.325
395.349
395.378
395.412
400
400
400
400
400
399.886
399.758
399.619
399.471
399.316
399.155
398.991
398.824
398.656
398.487
398.319
398.152
397.985
397.817
397.651
397.485
397.321
397.158
396.997
396.837
396.677
396.518
396.36
396.203
396.047
395.893
395.742
395.592
395.446
395.302
395.309
395.325
395.348
395.377
395.411
400
400
400
400
400
399.886
399.759
399.62
399.472
399.317
399.156
398.991
398.824
398.656
398.487
398.319
398.151
397.984
397.817
397.65
397.485
397.321
397.158
396.997
396.837
396.677
396.518
396.36
396.203
396.047
395.893
395.741
395.591
395.444
395.301
395.307
395.323
395.347
395.375
395.409
400
400
400
400
400
399.887
399.76
399.621
399.473
399.318
399.157
398.992
398.825
398.657
398.488
398.319
398.151
397.983
397.817
397.65
397.485
397.321
397.159
396.998
396.838
396.678
396.519
396.361
396.203
396.047
395.893
395.74
395.59
395.443
395.299
395.305
395.321
395.344
395.373
395.406
400
400
400
400
400
399.887
399.76
399.622
399.474
399.319
399.158
398.993
398.826
398.657
398.487
398.318
398.15
397.982
397.816
397.65
397.485
397.321
397.159
396.998
396.837
396.677
396.518
396.359
396.201
396.045
395.89
395.737
395.587
395.439
395.294
395.3
395.316
395.339
395.368
395.401
400
400
400
400
400
399.887
399.761
399.623
399.475
399.32
399.159
398.994
398.826
398.657
398.488
398.318
398.149
397.982
397.815
397.65
397.485
397.322
397.16
396.998
396.836
396.676
396.516
396.357
396.199
396.043
395.887
395.734
395.583
395.435
395.289
395.295
395.311
395.335
395.363
395.397
400
400
400
400
400
399.887
399.761
399.623
399.475
399.32
399.159
398.994
398.826
398.657
398.487
398.317
398.148
397.98
397.814
397.648
397.484
397.321
397.158
396.995
396.834
396.673
396.512
396.353
396.195
396.037
395.882
395.728
395.576
395.428
395.282
395.288
395.303
395.327
395.356
395.389
400
400
400
400
400
399.887
399.761
399.623
399.476
399.32
399.16
398.995
398.827
398.658
398.488
398.318
398.148
397.98
397.814
397.649
397.485
397.321
397.158
396.995
396.833
396.671
396.511
396.351
396.192
396.035
395.879
395.724
395.572
395.423
395.277
395.283
395.299
395.322
395.351
395.385
400
400
400
400
400
399.887
399.761
399.623
399.476
399.321
399.16
398.995
398.827
398.657
398.487
398.317
398.147
397.979
397.813
397.647
397.483
397.319
397.155
396.992
396.829
396.668
396.507
396.347
396.188
396.03
395.873
395.719
395.566
395.417
395.271
395.276
395.292
395.316
395.345
395.378
400
400
400
400
400
399.888
399.762
399.624
399.477
399.322
399.161
398.996
398.829
398.659
398.489
398.319
398.15
397.982
397.815
397.65
397.485
397.32
397.157
396.993
396.83
396.668
396.507
396.347
396.188
396.029
395.873
395.718
395.565
395.416
395.269
395.275
395.29
395.314
395.342
395.376
400
400
400
400
400
399.888
399.762
399.624
399.477
399.322
399.161
398.996
398.829
398.659
398.489
398.319
398.149
397.981
397.814
397.648
397.483
397.318
397.154
396.99
396.827
396.665
396.503
396.343
396.183
396.025
395.868
395.712
395.559
395.409
395.262
395.268
395.283
395.307
395.335
395.369
400
400
400
400
400
399.888
399.763
399.625
399.478
399.324
399.163
398.999
398.831
398.662
398.492
398.321
398.152
397.983
397.816
397.65
397.484
397.319
397.154
396.99
396.826
396.663
396.501
396.339
396.179
396.02
395.862
395.706
395.552
395.401
395.253
395.258
395.273
395.296
395.324
395.357
400
400
400
400
400
399.888
399.762
399.625
399.478
399.323
399.162
398.997
398.828
398.658
398.487
398.315
398.145
397.975
397.806
397.637
397.469
397.302
397.135
396.968
396.802
396.637
396.472
396.308
396.145
395.983
395.823
395.664
395.507
395.352
395.201
395.205
395.219
395.242
395.269
395.301
400
400
400
400
400
399.888
399.762
399.624
399.476
399.32
399.157
398.989
398.818
398.644
398.469
398.293
398.117
397.942
397.767
397.592
397.418
397.243
397.069
396.895
396.722
396.548
396.375
396.203
396.032
395.861
395.692
395.524
395.357
395.194
395.033
395.034
395.047
395.068
395.094
395.125
400
400
400
400
400
399.885
399.755
399.611
399.455
399.289
399.115
398.935
398.749
398.56
398.368
398.174
397.979
397.784
397.588
397.392
397.195
396.997
396.8
396.602
396.403
396.205
396.007
395.808
395.611
395.414
395.217
395.022
394.828
394.637
394.449
394.449
394.463
394.489
394.52
394.555
400
400
400
400
400
399.866
399.711
399.535
399.342
399.135
398.916
398.687
398.451
398.209
397.962
397.712
397.46
397.207
396.953
396.698
396.441
396.183
395.924
395.664
395.404
395.143
394.882
394.621
394.36
394.099
393.84
393.582
393.326
393.073
392.826
392.899
392.993
393.097
393.204
393.302
400
400
400
400
400
399.894
399.776
399.647
399.506
399.354
399.191
399.019
398.839
398.65
398.455
398.253
398.045
397.833
397.616
397.395
397.171
396.944
396.714
396.48
396.244
396.005
395.765
395.523
395.28
395.037
394.794
394.553
394.313
394.078
393.849
393.846
393.856
393.877
393.908
393.934
400
400
400
400
400
399.908
399.809
399.701
399.587
399.466
399.338
399.205
399.066
398.923
398.775
398.624
398.469
398.311
398.151
397.988
397.824
397.657
397.489
397.318
397.146
396.973
396.798
396.622
396.446
396.27
396.094
395.919
395.746
395.575
395.406
395.369
395.339
395.315
395.297
395.281
400
400
400
400
400
399.91
399.813
399.71
399.601
399.487
399.368
399.244
399.116
398.986
398.852
398.716
398.577
398.437
398.295
398.152
398.009
397.864
397.718
397.57
397.422
397.272
397.122
396.972
396.822
396.672
396.523
396.375
396.229
396.084
395.943
395.914
395.89
395.871
395.856
395.844
400
400
400
400
400
399.91
399.813
399.711
399.602
399.489
399.371
399.249
399.124
398.996
398.865
398.733
398.598
398.463
398.326
398.189
398.051
397.912
397.773
397.633
397.491
397.349
397.207
397.065
396.923
396.782
396.642
396.502
396.365
396.23
396.098
396.074
396.053
396.038
396.025
396.018
400
400
400
400
400
399.91
399.813
399.711
399.602
399.489
399.372
399.25
399.125
398.998
398.868
398.737
398.604
398.469
398.334
398.199
398.063
397.926
397.789
397.65
397.511
397.372
397.232
397.093
396.954
396.815
396.678
396.542
396.407
396.275
396.146
396.124
396.105
396.091
396.08
396.074
400
400
400
400
400
399.91
399.813
399.71
399.602
399.488
399.37
399.248
399.123
398.996
398.866
398.734
398.601
398.467
398.332
398.197
398.062
397.926
397.788
397.651
397.512
397.373
397.234
397.095
396.957
396.819
396.682
396.547
396.414
396.283
396.155
396.133
396.115
396.101
396.09
396.086
400
400
400
400
400
399.91
399.813
399.71
399.602
399.488
399.37
399.249
399.124
398.996
398.867
398.735
398.602
398.468
398.334
398.199
398.063
397.928
397.791
397.653
397.515
397.376
397.237
397.099
396.961
396.823
396.687
396.552
396.419
396.288
396.16
396.138
396.121
396.107
396.097
396.092
400
400
400
400
400
399.91
399.813
399.71
399.602
399.488
399.37
399.248
399.123
398.996
398.866
398.734
398.601
398.468
398.333
398.198
398.063
397.927
397.79
397.653
397.514
397.376
397.237
397.099
396.961
396.823
396.687
396.552
396.419
396.288
396.16
396.139
396.121
396.107
396.097
396.093
400
400
400
400
400