/*--------------------------------*- C++ -*----------------------------------*\
| =========                 |                                                 |
| \\      /  F ield         | OpenFOAM: The Open Source CFD Toolbox           |
|  \\    /   O peration     | Version:  5.0                                   |
|   \\  /    A nd           | Web:      www.OpenFOAM.org                      |
|    \\/     M anipulation  |                                                 |
\*---------------------------------------------------------------------------*/
FoamFile
{
    version     2.0;
    format      ascii;
    class       volScalarField;
    location    "450/air";
    object      alphat;
}
// * * * * * * * * * * * * * * * * * * * * * * * * * * * * * * * * * * * * * //

dimensions      [1 -1 -1 0 0 0 0];

internalField   nonuniform List<scalar> 
243000
(
0.000203589
0.000200699
0.000193412
0.00018478
0.000175383
0.000165722
0.000156074
0.000146631
0.000137553
0.000129081
0.000121536
0.000115314
0.00010992
0.000105011
9.99637e-05
9.46597e-05
9.03074e-05
0.000102922
0.000126474
0.000142984
0.000148446
0.000147707
0.000142787
0.000136243
0.000133024
0.0001329
0.000135553
0.000140399
0.000149019
0.000162431
0.000945189
0.000953919
0.000941108
0.000920082
0.000895397
0.000868532
0.000840124
0.000810574
0.000780387
0.000750709
0.000722962
0.00069913
0.000677056
0.000656545
0.000632586
0.000605609
0.000591189
0.000697148
0.000856944
0.00094768
0.000965215
0.000944652
0.000900088
0.000845039
0.000798846
0.000770084
0.000756486
0.000750329
0.000758384
0.000781019
0.00104677
0.00105277
0.00103727
0.00101365
0.000986043
0.000956085
0.00092455
0.000892012
0.000859165
0.000827423
0.000798498
0.000774134
0.000750839
0.000728535
0.000701725
0.000671329
0.000659358
0.000785044
0.000965354
0.001064
0.00108572
0.00106758
0.00102497
0.000971491
0.000920941
0.000886972
0.000869955
0.000861538
0.000868001
0.000888759
0.00111206
0.00111738
0.00110181
0.00107837
0.00105067
0.00102019
0.000987739
0.000954035
0.000919992
0.000887344
0.000858113
0.000833768
0.000809656
0.000785482
0.000755451
0.000720676
0.000708011
0.000844199
0.00103769
0.00114112
0.00116655
0.00115167
0.0011125
0.00106227
0.00101249
0.000974803
0.000955045
0.000945122
0.000950578
0.000970603
0.00115764
0.00116231
0.00114754
0.00112529
0.00109864
0.00106883
0.00103658
0.00100273
0.000968406
0.000935622
0.000906532
0.000882316
0.000857508
0.000831434
0.00079797
0.000758263
0.000743359
0.00088382
0.00108581
0.00119285
0.00122175
0.00121051
0.0011753
0.00112903
0.00108154
0.00104343
0.0010213
0.00101043
0.00101497
0.00103594
0.00119076
0.00119473
0.00118104
0.00116033
0.00113518
0.00110656
0.00107508
0.00104167
0.00100763
0.000975174
0.000946422
0.000922286
0.00089678
0.000868772
0.000831673
0.000786815
0.000772491
0.000909093
0.00111561
0.00122652
0.00125856
0.00125106
0.00121996
0.00117793
0.00113353
0.00109667
0.00107364
0.0010624
0.00106613
0.00108805
0.00121523
0.00121854
0.00120602
0.00118697
0.00116346
0.00113622
0.00110579
0.00107315
0.00103973
0.00100784
0.000979496
0.000955319
0.000929032
0.000899027
0.000858168
0.000808671
0.000797114
0.000924048
0.00113144
0.00124609
0.0012814
0.00127758
0.00125056
0.00121284
0.00117203
0.00113729
0.00111472
0.00110383
0.00110715
0.00112943
0.00123321
0.00123601
0.00122473
0.00120735
0.00118549
0.0011597
0.00113043
0.00109871
0.0010661
0.00103489
0.00100693
0.000982549
0.000955388
0.000923274
0.000878658
0.000827629
0.000818119
0.000935499
0.00113792
0.00125463
0.00129337
0.0012929
0.00126993
0.00123653
0.00119956
0.00116751
0.00114628
0.00113648
0.0011397
0.00116206
0.00124602
0.00124854
0.00123858
0.00122286
0.00120262
0.00117825
0.00115016
0.00111944
0.0010877
0.0010572
0.00102955
0.00100482
0.000976698
0.000942329
0.000894149
0.000844372
0.000836325
0.00094651
0.00113808
0.00125596
0.00129672
0.00129907
0.00128032
0.0012512
0.00121805
0.00118905
0.00116977
0.00116162
0.00116508
0.00118746
0.00125467
0.00125703
0.00124846
0.0012344
0.00121573
0.00119274
0.00116582
0.0011361
0.00110524
0.00107541
0.00104798
0.00102277
0.000993569
0.000956882
0.000905674
0.000858714
0.000852199
0.00095591
0.00113185
0.00124993
0.00129287
0.00129752
0.00128208
0.00125758
0.001229
0.00120321
0.00118636
0.00118027
0.00118434
0.00120676
0.00125975
0.00126215
0.00125495
0.00124251
0.00122538
0.00120372
0.00117796
0.00114923
0.00111923
0.00109001
0.00106268
0.00103691
0.00100648
0.000967531
0.000914622
0.000871074
0.000866016
0.000963544
0.00112577
0.00123771
0.00128303
0.00128993
0.00127767
0.00125652
0.00123239
0.00121084
0.00119667
0.00119315
0.00119832
0.00122084
0.00126167
0.00126436
0.00125852
0.00124769
0.00123201
0.00121159
0.00118687
0.00115913
0.00112999
0.00110134
0.00107406
0.0010476
0.00101586
0.000974848
0.000923188
0.00088206
0.000878078
0.00096952
0.00111954
0.00122361
0.00126872
0.00127748
0.00126812
0.0012504
0.00122982
0.00121212
0.0012016
0.0012008
0.00120732
0.00123036
0.00126073
0.00126404
0.00125963
0.00125029
0.00123599
0.00121674
0.00119303
0.00116616
0.00113776
0.00110967
0.00108239
0.00105515
0.00102208
0.00097944
0.000930728
0.000891868
0.000888589
0.000973994
0.00111309
0.00121078
0.00125405
0.00126233
0.0012547
0.00123997
0.00122289
0.00120867
0.00120154
0.00120364
0.00121181
0.00123588
0.00125725
0.00126133
0.00125851
0.00125068
0.00123761
0.00121942
0.00119666
0.00117064
0.00114293
0.00111522
0.00108783
0.00105975
0.0010255
0.000982229
0.000937239
0.000900644
0.000897724
0.000977106
0.00110628
0.00119867
0.00124032
0.00124844
0.00124171
0.001228
0.00121232
0.0012013
0.00119738
0.00120253
0.00121264
0.0012378
0.00125127
0.0012563
0.0012551
0.00124884
0.00123708
0.00121992
0.00119803
0.00117279
0.00114575
0.00111842
0.00109087
0.00106202
0.0010269
0.000985318
0.000943143
0.000908578
0.000905667
0.000979046
0.00109898
0.00118681
0.00122711
0.00123528
0.00122932
0.00121669
0.00120243
0.00119179
0.00118963
0.0011975
0.0012099
0.00123646
0.0012427
0.00124896
0.00124948
0.00124472
0.00123426
0.00121816
0.00119726
0.00117293
0.00114654
0.00111954
0.0010919
0.00106244
0.00102711
0.000988317
0.000948618
0.000915825
0.000912582
0.000979959
0.00109112
0.00117489
0.00121411
0.00122245
0.00121721
0.00120569
0.00119279
0.00118281
0.00118041
0.00118915
0.00120369
0.00123185
0.00123162
0.00123936
0.00124161
0.0012384
0.00122909
0.0012141
0.0011942
0.00117084
0.00114526
0.00111873
0.00109108
0.00106107
0.0010278
0.000991349
0.000953811
0.000922515
0.000918611
0.000979743
0.00108266
0.00116271
0.00120109
0.00120969
0.00120514
0.00119474
0.00118316
0.00117406
0.00117171
0.00117902
0.00119439
0.00122405
0.00121827
0.00122758
0.00123155
0.00122988
0.00122174
0.00120772
0.00118893
0.00116662
0.00114194
0.00111596
0.00108913
0.0010604
0.00102894
0.000994488
0.000958839
0.000928775
0.000923869
0.000978598
0.00107358
0.00115015
0.00118787
0.00119679
0.00119294
0.00118367
0.00117337
0.00116531
0.00116325
0.00116957
0.00118346
0.00121315
0.00120506
0.00121502
0.00122015
0.00121955
0.0012125
0.00119967
0.00118227
0.00116149
0.00113829
0.00111365
0.00108786
0.00106042
0.00103049
0.000997795
0.00096381
0.000934712
0.000928554
0.000976683
0.00106385
0.00113708
0.00117429
0.00118361
0.0011805
0.00117236
0.00116331
0.00115642
0.00115478
0.0011605
0.00117327
0.00119973
0.00119269
0.00120321
0.0012093
0.0012097
0.00120367
0.00119197
0.0011759
0.00115663
0.00113495
0.0011117
0.00108708
0.0010609
0.00103241
0.00100131
0.000968815
0.00094047
0.000932792
0.000974204
0.00105353
0.00112346
0.00116025
0.00117007
0.00116774
0.00116075
0.00115299
0.00114729
0.00114617
0.00115154
0.00116345
0.00118677
0.00118079
0.00119181
0.00119875
0.00120006
0.00119502
0.00118443
0.00116968
0.00115192
0.00113179
0.00110999
0.00108667
0.00106178
0.00103469
0.00100508
0.000973944
0.000946184
0.000936731
0.00097137
0.00104287
0.00110927
0.00114565
0.00115606
0.00115459
0.0011488
0.0011424
0.00113787
0.00113734
0.00114254
0.00115378
0.00117456
0.0011691
0.00118058
0.00118827
0.00119043
0.00118639
0.0011769
0.00116349
0.00114724
0.0011287
0.00110844
0.00108658
0.00106302
0.0010373
0.00100915
0.000979292
0.000951977
0.000940599
0.000968469
0.00103201
0.00109458
0.00113046
0.00114151
0.00114095
0.00113645
0.00113145
0.0011281
0.00112818
0.00113335
0.00114404
0.0011627
0.00115734
0.00116928
0.00117767
0.00118067
0.00117764
0.00116928
0.00115723
0.00114251
0.00112567
0.00110704
0.00108675
0.00106464
0.0010403
0.00101359
0.000984999
0.000958065
0.000944672
0.000965741
0.00102123
0.00107955
0.00111472
0.00112643
0.00112683
0.0011237
0.00112012
0.0011179
0.00111861
0.00112384
0.00113409
0.00115091
0.00114529
0.00115781
0.00116686
0.00117068
0.00116866
0.00116151
0.00115088
0.00113776
0.00112267
0.00110579
0.00108725
0.00106673
0.00104387
0.00101867
0.000991403
0.000964898
0.000949474
0.000963782
0.00101105
0.0010646
0.0010987
0.00111101
0.00111241
0.00111064
0.0011084
0.00110728
0.00110867
0.001114
0.00112386
0.00113901
0.00113293
0.00114613
0.00115581
0.00116037
0.0011594
0.00115354
0.00114443
0.00113306
0.00111983
0.00110495
0.00108841
0.00106968
0.00104865
0.00102522
0.000999535
0.000973673
0.00095631
0.000964291
0.0010027
0.00105067
0.00108319
0.00109584
0.00109815
0.00109761
0.00109659
0.00109648
0.00109852
0.00110394
0.00111338
0.00112699
0.00112043
0.00113417
0.0011446
0.00114982
0.00114994
0.00114554
0.00113821
0.00112884
0.00111801
0.00110564
0.00109147
0.00107535
0.00105693
0.00103597
0.0010125
0.000987774
0.000968674
0.000970075
0.000999304
0.0010402
0.00107035
0.00108273
0.00108546
0.00108566
0.0010855
0.00108613
0.00108863
0.00109404
0.00110287
0.00111502
0.00110872
0.00112287
0.00113399
0.00114008
0.00114152
0.00113913
0.00113439
0.0011282
0.0011207
0.00111204
0.00110194
0.0010901
0.00107598
0.0010591
0.00103912
0.00101642
0.000995768
0.000990796
0.00100933
0.00104188
0.00106685
0.00107714
0.00107899
0.00107874
0.00107836
0.00107889
0.00108116
0.00108594
0.00109361
0.00110406
0.00110335
0.00111814
0.00113043
0.00113874
0.00114315
0.00114496
0.00114536
0.00114504
0.00114397
0.00114228
0.00113961
0.00113535
0.0011285
0.00111797
0.00110323
0.00108367
0.00106218
0.00105028
0.00105675
0.00107652
0.00109313
0.00109832
0.00109619
0.00109265
0.00108933
0.00108712
0.00108674
0.00108866
0.00109319
0.00110015
0.00115289
0.0011689
0.00118423
0.00119822
0.0012107
0.00122191
0.00123239
0.00124218
0.00125105
0.00125986
0.00126768
0.00127324
0.00127474
0.00127111
0.00126145
0.00124546
0.00122496
0.00120838
0.00120311
0.00120781
0.00121256
0.00120946
0.00120106
0.00119172
0.00118227
0.00117335
0.00116556
0.0011592
0.00115495
0.0011537
0.00150391
0.00151489
0.00152658
0.00153841
0.00155206
0.00156323
0.00157198
0.00157839
0.00158293
0.00159085
0.00159766
0.00160144
0.00160043
0.00159492
0.00158423
0.00157058
0.00155541
0.0015443
0.0015385
0.00153847
0.00154059
0.0015416
0.00154128
0.0015403
0.00153798
0.00153421
0.00152913
0.00152262
0.00151535
0.00150809
0.000249942
0.000250544
0.000242734
0.0002318
0.00021922
0.000205898
0.00019229
0.000178705
0.000165419
0.000152889
0.000141701
0.000132442
0.000124511
0.000118904
0.000115887
0.000124533
0.000148274
0.000178626
0.000195872
0.000206285
0.000210661
0.000211054
0.00020869
0.000204905
0.000201051
0.000197679
0.000195786
0.000193954
0.000196569
0.000201242
0.00113016
0.00116518
0.00106001
0.000934714
0.000825687
0.000736302
0.000664532
0.000607941
0.000564326
0.000533089
0.00050661
0.000486275
0.000478211
0.000496401
0.000523083
0.00060073
0.000745307
0.000896139
0.000988507
0.00103475
0.00104098
0.00102182
0.00098719
0.000947153
0.000912683
0.000886036
0.000861788
0.000824121
0.000774287
0.00075307
0.00189486
0.00202226
0.00192392
0.001754
0.00157859
0.0014214
0.001289
0.00118228
0.00110006
0.00104128
0.00098944
0.000946561
0.000919891
0.000935064
0.000967136
0.00109538
0.00135338
0.00162172
0.00180599
0.00190493
0.00192871
0.00189698
0.00183199
0.00175498
0.00168956
0.00163124
0.00157999
0.00151237
0.00142602
0.00139941
0.00252401
0.00270813
0.00265009
0.00248476
0.00228289
0.00208414
0.00190647
0.00175936
0.00164272
0.00155044
0.00147311
0.00140525
0.00135395
0.0013532
0.00138221
0.00154448
0.00188273
0.0022478
0.00250791
0.00265622
0.00270513
0.00267372
0.00259481
0.00249749
0.00239906
0.00231462
0.00224275
0.00215917
0.00205302
0.00202921
0.00305237
0.00326294
0.0032577
0.00311708
0.00291239
0.00269211
0.00248384
0.00230552
0.00215687
0.00203977
0.00193584
0.00184251
0.00176557
0.0017426
0.00176265
0.00194451
0.00233932
0.0027772
0.00309584
0.00328658
0.00336231
0.00334101
0.00325853
0.00315628
0.00304474
0.00293659
0.00284612
0.00275012
0.00263736
0.002618
0.00350632
0.00373395
0.00377321
0.00366537
0.00347015
0.00324128
0.00301365
0.00281083
0.00263835
0.00249813
0.00236976
0.00225175
0.00215028
0.00210179
0.00210749
0.00229434
0.00271758
0.00321303
0.00358197
0.00380717
0.00390766
0.00390289
0.00382609
0.00372738
0.00361574
0.00350547
0.00340144
0.00329069
0.00316832
0.00316036
0.00390895
0.00414467
0.00421801
0.00414376
0.0039636
0.00373407
0.00349499
0.00327403
0.0030826
0.00292265
0.00277182
0.00263038
0.00250564
0.00243107
0.00241672
0.00259749
0.00302234
0.00355995
0.00397209
0.0042305
0.00435137
0.00436609
0.00430198
0.00421239
0.00411116
0.00400588
0.00390492
0.00379559
0.00366491
0.00366578
0.00426913
0.00450732
0.00460698
0.00456269
0.0043993
0.00417375
0.00392888
0.00369495
0.00348681
0.00331152
0.00314066
0.00297725
0.00283059
0.00272989
0.00269147
0.00285368
0.00326185
0.00384127
0.00428185
0.00456528
0.00470515
0.00473751
0.00469144
0.00462056
0.00453151
0.0044416
0.00434876
0.00424817
0.00411909
0.00412534
0.00458756
0.00482765
0.0049483
0.00492913
0.00478212
0.00456321
0.0043165
0.0040746
0.0038524
0.00366256
0.00347544
0.00329224
0.00312538
0.00299906
0.00293527
0.00307412
0.00346985
0.00407863
0.00454823
0.00484488
0.0049873
0.00502334
0.0049991
0.00495626
0.00488877
0.00481424
0.00473758
0.0046496
0.00452517
0.0045379
0.00487152
0.00510705
0.00524631
0.00524757
0.00511552
0.00490461
0.00465896
0.00441171
0.00417967
0.00397385
0.00377416
0.00357559
0.00338993
0.00323946
0.00315399
0.00327235
0.00365575
0.00423517
0.00472714
0.00503896
0.00519648
0.00523702
0.00522423
0.00518676
0.0051542
0.00512533
0.00507412
0.00500503
0.0048882
0.00490603
0.00513074
0.00535338
0.00550282
0.00552073
0.00540189
0.0051996
0.00495714
0.00470733
0.00446915
0.00424997
0.00403649
0.00382563
0.00362489
0.00345375
0.00335537
0.00344847
0.00380852
0.00435171
0.00484533
0.00517766
0.00534429
0.00539148
0.00539374
0.00537394
0.00534989
0.00533635
0.00533031
0.00530297
0.00521427
0.00523464
0.00536263
0.0055705
0.0057201
0.00574998
0.00564263
0.00544918
0.00521182
0.00496224
0.00471989
0.00449284
0.00426963
0.00404763
0.0038327
0.00364665
0.00353427
0.00360225
0.003931
0.00443458
0.00491919
0.00527092
0.00544198
0.00549494
0.00551077
0.00551062
0.00550754
0.00550796
0.00551917
0.00552937
0.0054995
0.00552342
0.00557027
0.00576061
0.00590428
0.00593607
0.00583768
0.00565334
0.00542328
0.00517718
0.0049339
0.0047019
0.00447271
0.00424174
0.00401674
0.00382654
0.00369224
0.00373403
0.00402291
0.00448497
0.00495094
0.00530866
0.00549358
0.00555624
0.00558172
0.00559985
0.00561853
0.0056435
0.00567272
0.00570493
0.0057125
0.00575854
0.00574479
0.00592609
0.00605933
0.00608674
0.00599318
0.00581643
0.00559278
0.00535294
0.00511342
0.00488014
0.00464742
0.00441122
0.00418274
0.0039885
0.00382974
0.00384432
0.00408789
0.00450476
0.00494361
0.00529682
0.00548992
0.00556344
0.00560762
0.00564442
0.00568502
0.00573513
0.00579079
0.00584602
0.00588208
0.00594306
0.00588208
0.00605445
0.00618398
0.00620452
0.00611351
0.00594493
0.00573019
0.00549721
0.00526243
0.00503146
0.00479859
0.00456213
0.00433851
0.00412545
0.00394651
0.00393335
0.00412958
0.00449637
0.00490034
0.00524213
0.00543731
0.00552232
0.00558576
0.00564236
0.00570465
0.00578126
0.00586695
0.00594963
0.00601537
0.00608971
0.00597455
0.00614111
0.0062663
0.00629012
0.00620265
0.00604281
0.00583976
0.00561742
0.00538997
0.00516215
0.00493301
0.00470295
0.00447389
0.0042388
0.00404241
0.00400094
0.00414907
0.00446282
0.00482593
0.00515019
0.00534226
0.00543857
0.00552119
0.00559826
0.00568232
0.00578306
0.00589786
0.00601158
0.00610391
0.00619508
0.00602805
0.00619295
0.00631337
0.00633832
0.00626077
0.00611501
0.00592676
0.00571896
0.00550188
0.00528044
0.00505442
0.00482325
0.00457908
0.00432889
0.00411711
0.00404545
0.00414758
0.00440827
0.00472608
0.00502655
0.00521107
0.00531754
0.00541883
0.0055165
0.00562165
0.00574409
0.00588403
0.00603011
0.00614921
0.00625513
0.00604612
0.00621431
0.00633147
0.00635865
0.00629338
0.00616793
0.00599681
0.00580001
0.00559039
0.00537667
0.00515166
0.00491164
0.00465535
0.00439584
0.00417029
0.00406912
0.00411461
0.00432853
0.00460447
0.00487685
0.00504952
0.00516376
0.00528282
0.00540031
0.00552571
0.00566776
0.00582812
0.00599925
0.00615233
0.00627497
0.00602604
0.00620497
0.00631962
0.00635685
0.00630737
0.00619396
0.00603443
0.00584678
0.00564611
0.00543632
0.0052113
0.0049666
0.00470343
0.00443836
0.00420076
0.00407079
0.00407404
0.00421908
0.00445157
0.00470317
0.0048652
0.00498934
0.00512331
0.00525668
0.00539783
0.00555468
0.00573184
0.00592211
0.00610131
0.00626649
0.00596118
0.00613066
0.0062473
0.0062977
0.00626493
0.00616561
0.00602077
0.00584935
0.00566054
0.00545721
0.00523383
0.00498732
0.00472098
0.0044531
0.00420565
0.00404916
0.00401476
0.00410123
0.00428401
0.00450891
0.00466595
0.00480779
0.00495492
0.00510169
0.00525588
0.00542328
0.00560909
0.00580743
0.0059999
0.00620032
0.00584571
0.00600711
0.00613331
0.00619054
0.00617281
0.00608907
0.0059635
0.00581015
0.00563388
0.0054373
0.00521572
0.00496888
0.0047016
0.00443285
0.00417875
0.0039997
0.0039301
0.00397125
0.00411242
0.00430656
0.00445146
0.00460584
0.00477522
0.00494229
0.00511006
0.00528536
0.00547514
0.00567511
0.0058715
0.00608787
0.00569368
0.0058525
0.00597393
0.00604412
0.00604302
0.00597316
0.00586518
0.00572793
0.00556232
0.00537097
0.00514971
0.00490121
0.00463212
0.00436414
0.00410827
0.00391309
0.00381837
0.00383476
0.00393149
0.00409322
0.00422606
0.00438657
0.00456655
0.00475177
0.00493594
0.0051208
0.00531388
0.00551282
0.00570666
0.00592369
0.0055092
0.00565675
0.00578017
0.00586616
0.00587723
0.00581978
0.0057242
0.00559737
0.00543694
0.00524498
0.00501917
0.00476572
0.0044933
0.00422651
0.00397559
0.00377372
0.0036669
0.0036616
0.00373635
0.00386675
0.00398928
0.00415706
0.00434606
0.00454254
0.00473732
0.00492634
0.00511921
0.00531733
0.00551348
0.00571548
0.00528728
0.00543872
0.00556767
0.00565639
0.00567
0.00562025
0.00552866
0.00540132
0.0052354
0.00503399
0.00479822
0.00453676
0.00426133
0.00399734
0.00376018
0.0035662
0.00345855
0.00344891
0.00351231
0.00362512
0.00373755
0.00391605
0.00410981
0.00431159
0.00451093
0.00470825
0.00490483
0.00509972
0.00529511
0.00547644
0.00505125
0.00519995
0.0053219
0.0053993
0.00540241
0.00534659
0.00524671
0.00510677
0.0049248
0.00470772
0.00446184
0.00419661
0.00392542
0.00367448
0.00346108
0.00328806
0.00318895
0.00318843
0.0032508
0.00334802
0.00346721
0.00364984
0.00384487
0.004052
0.00425871
0.00446227
0.0046614
0.00485454
0.00504437
0.00521125
0.00476951
0.00490875
0.0050089
0.00505489
0.005031
0.00495335
0.00483281
0.00467392
0.00447985
0.00426029
0.00402311
0.00377711
0.00353465
0.00331689
0.00314199
0.00300022
0.0029128
0.00291303
0.00297477
0.00306326
0.00318405
0.00335196
0.00353541
0.0037374
0.00394496
0.00415263
0.00435605
0.00455105
0.00473617
0.00489803
0.00439203
0.00450194
0.00456122
0.00456497
0.00450807
0.00441045
0.00428185
0.00412829
0.0039559
0.00377381
0.00358881
0.00340595
0.00322802
0.00306517
0.0029404
0.00283397
0.00275525
0.00274117
0.00278223
0.00285251
0.00294727
0.00307252
0.00321351
0.00337886
0.00355953
0.00375034
0.0039453
0.00413658
0.00431583
0.00447679
0.00387317
0.00394477
0.00397249
0.00395895
0.0039048
0.00383213
0.00374531
0.00364949
0.0035457
0.00343953
0.00333503
0.00323107
0.00312471
0.00301502
0.00292898
0.0028491
0.00278272
0.00275741
0.00277233
0.00281331
0.00287102
0.00294478
0.00302376
0.0031199
0.0032305
0.00335606
0.00349549
0.00364198
0.00378295
0.00391308
0.00343179
0.00348511
0.00351569
0.00352514
0.00351305
0.00349448
0.00346772
0.0034325
0.00338812
0.00332931
0.00326982
0.00320658
0.00313977
0.00307537
0.0030118
0.00295356
0.00290689
0.00288474
0.00288695
0.0029087
0.00293878
0.00297496
0.00301768
0.00306959
0.00312796
0.00319392
0.00326768
0.00334342
0.00340284
0.00345298
0.0033041
0.00334868
0.00337576
0.00338704
0.00338486
0.00337561
0.00336105
0.00333832
0.00331176
0.00328057
0.00324827
0.00320997
0.00316554
0.0031209
0.00308035
0.00304924
0.00302787
0.00302451
0.00303178
0.00304702
0.00306502
0.00308888
0.00311488
0.00314383
0.00317264
0.00320183
0.00322871
0.0032557
0.0032833
0.00330291
0.000287085
0.000284864
0.000275125
0.00026247
0.000248072
0.000232806
0.00021715
0.000201475
0.000186095
0.000171493
0.000158223
0.000147045
0.000141043
0.0001454
0.000159895
0.000185677
0.000209989
0.000236485
0.000251518
0.000259984
0.000263234
0.000263397
0.000261385
0.000258082
0.000254222
0.000250198
0.000246734
0.000242534
0.000240497
0.000238534
0.00137758
0.00147682
0.00136793
0.00121451
0.00107664
0.000963342
0.000874262
0.000805293
0.000751759
0.000711533
0.00066589
0.000628339
0.00064481
0.00074061
0.000853344
0.00102413
0.00119419
0.00137285
0.00148167
0.00152145
0.00150919
0.00147218
0.00141813
0.0013583
0.00129672
0.00123417
0.00116854
0.00108381
0.000979902
0.00090205
0.00237505
0.00259144
0.00251912
0.00232765
0.00211266
0.00191467
0.00174825
0.00161397
0.00150777
0.00142833
0.00134055
0.00126434
0.00127214
0.00142266
0.00161019
0.00190766
0.00221823
0.00252563
0.00274276
0.00284276
0.00284148
0.00278017
0.00268294
0.00256945
0.00244956
0.00232152
0.00219259
0.00203635
0.00185104
0.0017218
0.00320078
0.00349835
0.00349072
0.00332172
0.0030818
0.00283425
0.00261047
0.00242058
0.00226606
0.00214984
0.0020174
0.00190633
0.00189473
0.00207261
0.00230806
0.00268827
0.00310461
0.0035025
0.00380514
0.00396439
0.00398941
0.00392073
0.00379997
0.0036522
0.00349128
0.00332162
0.00314947
0.00294455
0.00269757
0.00253921
0.00391483
0.00426041
0.00432637
0.00419997
0.00396097
0.00368677
0.00342233
0.0031882
0.00299298
0.00283884
0.00267107
0.00252865
0.00249498
0.00268345
0.00294258
0.00337026
0.00385629
0.00432448
0.00469112
0.00490108
0.00495785
0.00489421
0.00476645
0.00460239
0.00441765
0.00422652
0.00402678
0.00379107
0.00350854
0.00333446
0.00456262
0.00493787
0.00506985
0.00498855
0.00476059
0.00447259
0.00417909
0.00390971
0.00367936
0.00348856
0.00329149
0.00312219
0.0030683
0.00325277
0.00351759
0.00396542
0.00449277
0.00500904
0.00543043
0.00568175
0.00576757
0.00571756
0.00559641
0.00543242
0.0052389
0.00503917
0.00482553
0.00457325
0.00426722
0.00409342
0.0051603
0.00555911
0.00574676
0.00570595
0.00549145
0.0051964
0.00488173
0.00458382
0.00432234
0.00409881
0.00387587
0.00368284
0.00361184
0.00379148
0.0040371
0.00448388
0.00502997
0.00557336
0.00604156
0.0063322
0.00643801
0.00640592
0.00630226
0.00615427
0.00596682
0.00576348
0.00555249
0.00529611
0.00497542
0.00480835
0.00571739
0.00613684
0.00637048
0.00636268
0.00616037
0.00586164
0.00553135
0.00520999
0.00492132
0.00467032
0.00442269
0.0042082
0.00412243
0.00428302
0.00450442
0.00493396
0.00548026
0.00605971
0.00656227
0.00687546
0.00698747
0.00697129
0.00689248
0.00677718
0.00661081
0.00642042
0.00621399
0.00596691
0.00564131
0.00548285
0.00623429
0.00667636
0.0069471
0.00696387
0.0067708
0.00647009
0.00612829
0.00578772
0.00547534
0.00519906
0.00493071
0.0046984
0.00461125
0.00473129
0.00492387
0.00532257
0.00587881
0.00645265
0.00696853
0.00731857
0.00743416
0.00743027
0.00734654
0.00723687
0.00712583
0.00699376
0.00681626
0.00658714
0.00627308
0.00611993
0.00672781
0.00717872
0.00747836
0.00751133
0.00732393
0.00702218
0.0066727
0.00631654
0.00598399
0.00568506
0.00539959
0.0051606
0.00506117
0.00514065
0.00529992
0.00565826
0.0061927
0.0067607
0.00729294
0.00767344
0.00779463
0.00780543
0.0077413
0.00763651
0.00752845
0.00742581
0.00731723
0.00713943
0.00687186
0.00672383
0.00719704
0.00764387
0.00796332
0.00800488
0.0078199
0.00751839
0.00716378
0.00679638
0.00644742
0.00612958
0.00583145
0.00558427
0.00547128
0.00551388
0.00563807
0.00596467
0.00645913
0.00700926
0.00754622
0.00794892
0.00807862
0.00810607
0.00806477
0.00798401
0.00788598
0.00779875
0.00771408
0.0076197
0.00742593
0.00729868
0.00763865
0.00807319
0.00839899
0.00844335
0.00825877
0.00795893
0.00760192
0.0072273
0.00686659
0.00653459
0.00622805
0.00597484
0.00584696
0.005855
0.00594586
0.00622718
0.00667818
0.00720002
0.00772902
0.0081528
0.00829413
0.0083396
0.00832342
0.00827
0.00820062
0.00813074
0.00807324
0.00801623
0.00791739
0.00782796
0.00804938
0.00846742
0.00878164
0.00882522
0.0086406
0.0083445
0.00798826
0.00761074
0.00724316
0.00690225
0.00659153
0.00633356
0.0061909
0.00616824
0.0062213
0.00645134
0.00684906
0.0073331
0.00784134
0.00827975
0.00843719
0.00851084
0.00852274
0.00849859
0.00846144
0.00842494
0.00839417
0.00837395
0.00833429
0.0083004
0.00843295
0.00882556
0.00911716
0.00914906
0.00896606
0.00867654
0.00832472
0.00794897
0.00757974
0.00723548
0.0069243
0.00666192
0.0065066
0.00644912
0.00646114
0.00663434
0.00697016
0.00740733
0.00788353
0.00832931
0.00850627
0.00861326
0.00866109
0.00867214
0.00866993
0.00867052
0.00867563
0.0086896
0.00869156
0.00870527
0.00877437
0.00914829
0.009406
0.00941923
0.0092367
0.00895734
0.00861414
0.00824506
0.00787974
0.00753717
0.00722792
0.00696095
0.00678712
0.00669319
0.00666108
0.00677264
0.00703941
0.0074204
0.00785707
0.0083008
0.00849915
0.00864429
0.00873533
0.0087882
0.00882528
0.00886487
0.00891172
0.00896129
0.00900147
0.00905073
0.00907023
0.00942018
0.00964652
0.00963896
0.00946121
0.0091905
0.00885988
0.00850232
0.0081462
0.00780889
0.00750016
0.00722733
0.00702771
0.00689435
0.00681592
0.00686194
0.00705457
0.00737118
0.00776323
0.00819388
0.00841372
0.00860087
0.00874068
0.0088421
0.00892461
0.00900626
0.00909363
0.00918486
0.00926292
0.00934577
0.00930327
0.0096309
0.00982903
0.00980812
0.00963853
0.00938004
0.00906458
0.00872236
0.00837814
0.00804824
0.00773931
0.00745288
0.00722522
0.00704977
0.00691936
0.0068974
0.0070133
0.00726058
0.00760311
0.00800924
0.00824843
0.00847973
0.00867189
0.00882754
0.00896143
0.00908898
0.00921833
0.00934979
0.00946892
0.00958552
0.00947618
0.00977767
0.00995243
0.00992476
0.00976934
0.00952795
0.0092287
0.0088976
0.00855658
0.00823085
0.00791762
0.00761979
0.00736217
0.00714235
0.00696326
0.00687374
0.00691281
0.00709
0.00737882
0.00774935
0.00800484
0.00827686
0.00852244
0.00873748
0.00892818
0.00910559
0.00927802
0.00944908
0.00960828
0.00975494
0.00958046
0.00985466
0.00999914
0.00998318
0.00983992
0.00960551
0.00931891
0.0090015
0.0086731
0.00835082
0.00803161
0.00772095
0.0074304
0.00716614
0.00693804
0.00678463
0.00675112
0.00684652
0.00707718
0.00741995
0.00771216
0.00802654
0.00831924
0.00858787
0.00882873
0.00904981
0.00926307
0.00947345
0.00967283
0.00985258
0.0096096
0.00982922
0.00996325
0.00996631
0.0098313
0.0096102
0.00933711
0.00903359
0.0087149
0.00839277
0.00806409
0.00773646
0.00741404
0.00710931
0.00683272
0.00662196
0.00652501
0.00655694
0.0067327
0.007028
0.00733059
0.0076958
0.00806942
0.00839972
0.00869046
0.00895152
0.00919815
0.00943631
0.00966183
0.00986825
0.00952817
0.0097194
0.0098579
0.00986556
0.00974198
0.00953332
0.00927087
0.00897792
0.00866372
0.00833635
0.0079936
0.00764525
0.00729157
0.00695257
0.00663486
0.00637564
0.00622814
0.00620834
0.00633631
0.00658229
0.0068853
0.00727474
0.00768899
0.00809537
0.00846937
0.00880429
0.0090968
0.00935915
0.00959852
0.00982104
0.00935127
0.00953105
0.00966201
0.00967058
0.00955541
0.00935598
0.00910192
0.00881258
0.00849583
0.00815651
0.0077949
0.00742329
0.00704126
0.00667434
0.00632929
0.00603533
0.00585401
0.00579893
0.00588597
0.006087
0.00638797
0.00678933
0.00723162
0.00768051
0.00810089
0.00847863
0.00881658
0.00912191
0.00939127
0.00964108
0.0090622
0.00924365
0.00936104
0.00936489
0.00925126
0.00905408
0.00880067
0.00850711
0.00818039
0.00782591
0.00744334
0.00704934
0.00664595
0.00626099
0.00590541
0.00559769
0.0053947
0.00532496
0.00538364
0.00554821
0.00583979
0.00624865
0.00670487
0.00717064
0.0076118
0.00802051
0.00840187
0.00875113
0.00906011
0.00932916
0.00864926
0.00883001
0.00893075
0.00892178
0.00879912
0.0085948
0.0083332
0.00802866
0.00768878
0.00732066
0.00692645
0.00651926
0.00610891
0.00572263
0.00537567
0.00507338
0.00486666
0.00479421
0.00484049
0.00497867
0.00525346
0.00565321
0.00610526
0.00657561
0.00703585
0.00747262
0.00788257
0.00825891
0.0085911
0.00887835
0.00808682
0.00826011
0.0083335
0.00830214
0.00816024
0.00794215
0.00767003
0.00735782
0.00701447
0.00664899
0.00626567
0.00587158
0.005479
0.00511682
0.00480105
0.00452143
0.00432578
0.00425434
0.00429116
0.00441209
0.00465937
0.00502242
0.00544192
0.0058912
0.00634641
0.00679158
0.00721664
0.00761135
0.00796204
0.00826501
0.00733724
0.00748729
0.00752625
0.00746838
0.00730939
0.00708656
0.00682114
0.00652645
0.00621133
0.00588389
0.00554787
0.00520836
0.00486724
0.00455858
0.00429554
0.00405106
0.00387494
0.00380463
0.00383272
0.00392905
0.00412126
0.00441279
0.00476548
0.00515581
0.00556559
0.00598233
0.00639386
0.00678546
0.00714115
0.00745241
0.00638224
0.00649979
0.00651341
0.0064484
0.00630243
0.00611254
0.00589733
0.00566654
0.00542493
0.00517679
0.00492393
0.00466971
0.00440879
0.00416791
0.00396112
0.00376822
0.00363278
0.00357109
0.0035831
0.00364765
0.00377587
0.00395815
0.00419091
0.00448626
0.00480497
0.00513816
0.00548314
0.00582294
0.00614407
0.00643471
0.00536711
0.00545953
0.00547931
0.00544741
0.00536059
0.00524845
0.00512223
0.00498593
0.00483908
0.00468114
0.00451358
0.00434036
0.00414588
0.00397065
0.00381784
0.0036648
0.00355544
0.00350166
0.00350006
0.00354029
0.0036239
0.0037387
0.00387715
0.00404441
0.00424497
0.00447344
0.00471477
0.00494827
0.00517324
0.00538369
0.00465379
0.00472762
0.00476308
0.00477049
0.00474349
0.00469981
0.00464383