/*--------------------------------*- C++ -*----------------------------------*\
| =========                 |                                                 |
| \\      /  F ield         | OpenFOAM: The Open Source CFD Toolbox           |
|  \\    /   O peration     | Version:  5.0                                   |
|   \\  /    A nd           | Web:      www.OpenFOAM.org                      |
|    \\/     M anipulation  |                                                 |
\*---------------------------------------------------------------------------*/
FoamFile
{
    version     2.0;
    format      ascii;
    class       volScalarField;
    location    "450/air";
    object      epsilon;
}
// * * * * * * * * * * * * * * * * * * * * * * * * * * * * * * * * * * * * * //

dimensions      [0 2 -3 0 0 0 0];

internalField   nonuniform List<scalar> 
243000
(
6.03705
6.72927
6.99271
7.04859
6.92755
6.67029
6.30471
5.85757
5.35765
4.84424
4.36588
3.97003
3.60386
3.23957
2.83225
2.39786
2.09713
3.2973
5.83891
7.64782
7.76989
6.94838
5.68216
4.39303
3.57136
3.0889
2.83003
2.70651
2.77792
3.08098
3.82566
3.92806
3.77514
3.5311
3.2582
2.97722
2.69745
2.42461
2.1647
1.9273
1.72148
1.55668
1.4127
1.28635
1.14771
1.00666
0.970014
1.73005
3.15995
4.11975
4.27588
3.98321
3.44663
2.85671
2.39265
2.12202
1.99586
1.93689
1.99212
2.16583
5.19433
5.28541
5.05942
4.72592
4.35495
3.97447
3.59779
3.23378
2.89119
2.58328
2.32222
2.11603
1.92913
1.75994
1.56864
1.37467
1.35498
2.47783
4.50002
5.81141
6.0719
5.73444
5.0702
4.31983
3.66498
3.24362
3.03743
2.93485
2.99095
3.19782
6.23298
6.32634
6.06999
5.69587
5.27329
4.83242
4.38975
3.95849
3.55167
3.188
2.88388
2.64505
2.41995
2.20651
1.95734
1.70172
1.68327
3.0865
5.57246
7.15119
7.51876
7.18535
6.4656
5.62776
4.85935
4.30906
4.02127
3.87753
3.93269
4.17771
7.03905
7.12881
6.86512
6.47877
6.03455
5.56115
5.07659
4.59834
4.14424
3.73874
3.4013
3.13515
2.87504
2.61659
2.30556
1.98111
1.94965
3.54679
6.37278
8.15426
8.62653
8.33229
7.60844
6.73961
5.91133
5.28343
4.92077
4.74159
4.79183
5.08714
7.67005
7.75132
7.49242
7.11038
6.66291
6.17563
5.66683
5.15755
4.67043
4.23466
3.87123
3.581
3.28802
2.98401
2.60779
2.21126
2.18084
3.86381
6.91007
8.85414
9.42207
9.18905
8.4973
7.63956
6.79494
6.12961
5.72002
5.51531
5.55914
5.89851
8.16308
8.23398
7.987
7.61912
7.17954
6.69056
6.17009
5.64204
5.13317
4.67609
4.29209
3.97957
3.65488
3.30475
2.8616
2.39984
2.39299
4.05682
7.20769
9.28295
9.93958
9.77968
9.14454
8.3287
7.50257
6.83206
6.40302
6.18998
6.22985
6.60113
8.54204
8.60377
8.37386
8.02632
7.60156
7.11872
6.59543
6.05769
5.53568
5.06408
4.66335
4.32921
3.97368
3.57668
3.06744
2.57742
2.58621
4.17679
7.33341
9.47513
10.2179
10.1329
9.57109
8.81983
8.03784
7.38859
6.96296
6.75879
6.79902
7.19366
8.82295
8.87909
8.67067
8.34762
7.9422
7.4707
6.9506
6.40987
5.88107
5.39991
4.98502
4.62957
4.24392
3.7994
3.22843
2.73843
2.7619
4.29169
7.3374
9.50821
10.2973
10.279
9.80684
9.13525
8.41285
7.80427
7.4015
7.22005
7.26674
7.67929
9.01974
9.07283
8.88973
8.59424
8.21123
7.75459
7.24198
6.70306
6.1721
5.68483
5.25757
4.88118
4.46553
3.9743
3.35209
2.88118
2.92094
4.38821
7.21505
9.37719
10.2086
10.243
9.84872
9.27563
8.6413
8.0882
7.72412
7.57709
7.63699
8.06376
9.14195
9.19543
9.03929
8.7732
8.41468
7.97563
7.47413
6.94066
6.411
5.92021
5.48186
5.08526
4.63921
4.10425
3.45802
3.00953
3.06401
4.46566
7.05381
9.11175
9.9828
10.0684
9.75043
9.25429
8.71567
8.24639
7.93237
7.83319
7.91536
8.35393
9.19676
9.25489
9.12577
8.89073
8.55778
8.13733
7.64832
7.12388
6.59924
6.10733
5.65941
5.24238
4.76704
4.19375
3.55896
3.12709
3.19219
4.52459
6.90504
8.78929
9.6567
9.78469
9.53878
9.12364
8.66521
8.27786
8.03738
7.99147
8.1023
8.55545
9.1874
9.25758
9.15791
8.95332
8.64632
8.2456
7.77095
7.25617
6.73713
6.24696
5.79116
5.35431
4.85122
4.25001
3.64861
3.23474
3.30612
4.56585
6.76153
8.50486
9.31424
9.436
9.24401
8.90181
8.52427
8.21278
8.04288
8.05629
8.20011
8.67693
9.123
9.20794
9.14169
8.96744
8.68451
8.30347
7.84443
7.34159
6.82999
6.34088
5.87742
5.42209
4.89683
4.29088
3.72827
3.33343
3.40675
4.5905
6.6179
8.2427
9.00388
9.12407
8.95295
8.64093
8.31042
8.06951
7.96785
8.04137
8.22376
8.72308
9.00467
9.10745
9.07486
8.93344
8.67752
8.31627
7.87292
7.38307
6.88092
6.39485
5.9253
5.45459
4.91457
4.33441
3.80182
3.42446
3.49519
4.60019
6.47092
7.99232
8.71408
8.83512
8.68305
8.40091
8.10352
7.87712
7.82135
7.94907
8.17645
8.70123
8.83158
8.95716
8.96001
8.85031
8.62162
8.28269
7.85911
7.38607
6.89483
6.41329
5.94046
5.45889
4.9214
4.37716
3.87107
3.50893
3.57256
4.59428
6.31873
7.74762
8.43694
8.56009
8.42618
8.1734
7.90728
7.69988
7.64065
7.79161
8.05913
8.61071
8.6072
8.75961
8.79757
8.72016
8.51662
8.20188
7.79982
7.34669
6.87097
6.39791
5.925
5.44008
4.9348
4.42056
3.93752
3.58791
3.6399
4.57485
6.16094
7.50482
8.1669
8.29305
8.17672
7.95246
7.71622
7.53067
7.47383
7.59649
7.88009
8.45517
8.33877
8.51867
8.59039
8.54478
8.3668
8.0746
7.69742
7.26729
6.81045
6.35246
5.89659
5.43365
4.95438
4.46548
4.00244
3.66244
3.69806
4.5437
5.99699
7.26138
7.89996
8.02991
7.93081
7.73411
7.52632
7.36465
7.31464
7.41816
7.6684
8.23772
8.07564
8.26501
8.35887
8.33565
8.18246
7.91794
7.57241
7.17492
6.74867
6.31547
5.87876
5.43645
4.97957
4.51269
4.06701
3.73374
3.74883
4.50252
5.82623
7.01529
7.63319
7.76808
7.68615
7.51597
7.33533
7.1987
7.15819
7.24964
7.47481
7.97273
7.83424
8.03072
8.14202
8.13898
8.00838
7.7696
7.45387
7.08806
6.69215
6.28436
5.8685
5.44605
5.00985
4.56276
4.13234
3.8031
3.79405
4.45382
5.65104
6.76578
7.36453
7.50592
7.44135
7.29678
7.14344
7.03111
7.0015
7.08593
7.29164
7.72139
7.6064
7.80835
7.93417
7.94922
7.83979
7.62558
7.33863
7.00399
6.63847
6.25706
5.86389
5.46153
5.04503
4.61635
4.19956
3.87199
3.83518
4.40013
5.47355
6.51287
7.09254
7.24139
7.19491
7.076
6.95033
6.86122
6.84307
6.92387
7.11409
7.48925
7.38619
7.59284
7.73043
7.76209
7.67329
7.48312
7.22449
6.92082
6.58603
6.23228
5.86387
5.48232
5.08484
4.67411
4.26995
3.94216
3.87458
4.34472
5.29567
6.25751
6.81686
6.97348
6.94531
6.85238
6.75442
6.68754
6.68088
6.7603
6.93773
7.26772
7.16856
7.37924
7.52725
7.57465
7.50635
7.34033
7.11003
6.83709
6.53421
6.20962
5.86764
5.50857
5.13053
4.7374
4.34548
4.01618
3.91573
4.29141
5.12126
6.00227
6.53865
6.70295
6.69303
6.62662
6.55514
6.50922
6.51361
6.59308
6.75984
7.05086
6.94919
7.16557
7.32323
7.38509
7.33711
7.19601
6.9946
6.7532
6.48298
6.18929
5.87637
5.5419
5.18454
4.80982
4.43083
4.09977
3.96517
4.2474
4.95731
5.75357
6.26251
6.43331
6.44079
6.3998
6.35275
6.3265
6.34198
6.42198
6.57909
6.83559
6.72798
6.95141
7.11762
7.19238
7.1646
7.04952
6.87841
6.67042
6.43444
6.17575
5.8957
5.58857
5.25672
4.90372
4.54023
4.2087
4.03912
4.23172
4.8195
5.52524
6.00071
6.17391
6.1965
6.17745
6.15199
6.143
6.16868
6.24891
6.39613
6.62161
6.5072
6.73632
6.91197
6.99781
6.99082
6.90413
6.76711
6.59652
6.40353
6.18755
5.9457
5.67801
5.38223
5.05938
4.71778
4.38878
4.18299
4.2842
4.74804
5.35193
5.78538
5.95265
5.98193
5.97613
5.96561
5.96879
6.00147
6.07993
6.21497
6.41142
6.30312
6.53526
6.72042
6.82
6.83807
6.78882
6.69938
6.58554
6.44994
6.29564
6.11843
5.9146
5.6781
5.40511
5.09755
4.77457
4.52568
4.53138
4.85901
5.35281
5.71475
5.85163
5.86868
5.85633
5.84318
5.84514
5.87382
5.94166
6.05655
6.22116
6.20652
6.44852
6.65458
6.79357
6.86558
6.89247
6.89476
6.8843
6.85987
6.82288
6.76709
6.68155
6.55035
6.35737
6.09955
5.77953
5.46946
5.35366
5.52043
5.8575
6.11319
6.17732
6.13272
6.06816
6.00822
5.9664
5.95299
5.9761
6.04096
6.14862
7.06061
7.35091
7.63694
7.90375
8.14629
8.37051
8.58311
8.7846
8.9687
9.15096
9.31182
9.4224
9.44228
9.34888
9.12575
8.77895
8.372
8.09142
8.04815
8.17016
8.25814
8.17834
8.00632
7.81911
7.63258
7.45823
7.30668
7.18252
7.0976
7.06895
15.57
15.9126
16.2838
16.6644
17.1094
17.4868
17.78
17.9947
18.1463
18.4028
18.6247
18.7409
18.6915
18.4863
18.1078
17.6488
17.167
16.8397
16.6821
16.6983
16.7602
16.7824
16.7698
16.7355
16.658
16.5332
16.367
16.1561
15.9224
15.6927
11.1745
13.0925
13.8154
13.9011
13.5097
12.7711
11.7691
10.5824
9.29908
8.03464
6.91311
6.02015
5.25703
4.75327
4.55602
5.88646
9.90947
16.5004
20.5654
22.3569
21.8854
20.0096
17.4077
14.6768
12.2257
10.1679
8.5854
7.2194
6.4598
5.93199
7.67693
7.92555
8.11763
8.16493
8.0044
7.65197
7.13844
6.50813
5.81703
5.13308
4.55835
4.10911
3.77985
3.71776
3.97821
5.32042
8.28809
12.3987
14.5528
15.5322
15.4097
14.4965
13.1076
11.5593
10.0475
8.64824
7.49793
6.47603
5.86647
5.52872
7.56403
7.29947
7.17754
7.10238
6.96976
6.72654
6.3611
5.89065
5.35715
4.82627
4.40286
4.07896
3.85292
3.89479
4.26305
5.55923
8.28163
11.6725
13.4169
14.2674
14.2758
13.6411
12.5987
11.3706
10.0919
8.89178
7.86228
6.92185
6.3494
6.09118
7.68475
7.1517
6.85911
6.70305
6.57079
6.37904
6.09302
5.70933
5.26605
4.84134
4.49822
4.24061
4.06623
4.15199
4.54634
5.74557
8.29259
11.2149
12.7823
13.5963
13.6926
13.2298
12.3832
11.3376
10.254
9.18604
8.23989
7.35456
6.80414
6.58215
7.77097
7.09988
6.68603
6.47752
6.34264
6.18335
5.95203
5.63448
5.26955
4.9102
4.62988
4.41722
4.27437
4.37458
4.75272
5.82473
8.15846
10.7378
12.2063
13.0042
13.1668
12.8339
12.1455
11.2376
10.2788
9.34673
8.493
7.68272
7.13371
6.92734
7.79082
7.03767
6.55566
6.3111
6.17349
6.0371
5.84731
5.58634
5.28164
4.98169
4.74832
4.56775
4.44508
4.54171
4.87707
5.81372
7.91122
10.2166
11.6168
12.401
12.6094
12.3761
11.8176
11.0375
10.1835
9.33834
8.57596
7.86315
7.33492
7.1193
7.73158
6.94627
6.43418
6.16876
6.03028
5.91128
5.75475
5.54117
5.28806
5.0378
4.8409
4.68319
4.57213
4.65168
4.92644
5.73422
7.57955
9.66352
11.0103
11.7794
12.0154
11.857
11.4063
10.7485
9.98832
9.2273
8.52702
7.88228
7.38479
7.16134
7.60545
6.82548
6.30943
6.03787
5.90188
5.79698
5.66714
5.49279
5.28597
5.07427
4.90488
4.76291
4.65655
4.71029
4.91148
5.59925
7.20305
9.09945
10.4018
11.1525
11.4011
11.2959
10.9323
10.3792
9.72032
9.03167
8.393
7.807
7.33385
7.10623
7.43031
6.68011
6.17947
5.91375
5.78398
5.69144
5.58288
5.43893
5.27103
5.0924
4.94119
4.80881
4.70106
4.72449
4.85218
5.43634
6.82848
8.55001
9.81032
10.5394
10.7869
10.7149
10.4189
9.954
9.38489
8.7771
8.19202
7.66192
7.21964
6.98542
7.22183
6.51695
6.04558
5.79499
5.67469
5.59354
5.50184
5.38223
5.24363
5.0951
4.95458
4.82428
4.71136
4.70334
4.77137
5.28449
6.49504
8.03818
9.25184
9.95566
10.1909
10.135
9.88787
9.49369
9.00289
8.47082
7.9459
7.46601
7.05767
6.81977
6.99325
6.3435
5.91009
5.68131
5.57304
5.50256
5.4241
5.32282
5.20502
5.07884
4.94888
4.81675
4.69431
4.65713
4.6956
5.14596
6.20525
7.59105
8.74811
9.41881
9.6294
9.57524
9.35971
9.01985
8.59401
8.1283
7.66373
7.23158
6.86119
6.62557
6.75363
6.16575
5.77561
5.57307
5.47848
5.41781
5.34957
5.26148
5.15888
5.04554
4.92085
4.78673
4.6571
4.59838
4.62471
5.02315
5.96045
7.20796
8.31375
8.95196
9.1207
9.05335
8.85264
8.55092
8.17654
7.76707
7.35632
6.97698
6.64093
6.41534
6.51007
5.98828
5.64451
5.47086
5.39075
5.3388
5.27821
5.19919
5.10655
5.0014
4.87908
4.74244
4.60879
4.54591
4.56381
4.91911
5.75289
6.88677
7.94626
8.55821
8.68552
8.59046
8.38419
8.10301
7.76591
7.40222
7.03829
6.70567
6.40658
6.19944
6.26842
5.8145
5.51823
5.37537
5.30965
5.26526
5.21027
5.13736
5.0509
4.95033
4.8292
4.69145
4.56079
4.50487
4.51782
4.83743
5.57635
6.62422
7.64289
8.23346
8.32395
8.1991
7.97603
7.6952
7.37694
7.0466
6.72177
6.42958
6.16688
5.98109
6.03321
5.64688
5.40031
5.28707
5.23504
5.19729
5.14682
5.07843
4.996
4.89803
4.77873
4.64393
4.52931
4.47943
4.49155
4.78116
5.43646
6.41697
7.401
7.97283
8.03377
7.87875
7.63227
7.34178
7.02939
6.71463
6.41771
6.1583
5.92937
5.76574
5.80644
5.48676
5.29179
5.20683
5.1679
5.13655
5.09066
5.02651
4.94764
4.85278
4.73806
4.61404
4.51934
4.47577
4.48977
4.75185
5.33817
6.26101
7.21521
7.77283
7.81267
7.62852
7.35458
7.04698
6.7312
6.42394
6.1398
5.90084
5.70018
5.55826
5.59807
5.34226
5.19586
5.13746
5.11161
5.08735
5.04726
4.98793
4.91466
4.82675
4.72438
4.6158
4.53792
4.50079
4.51807
4.75741
5.28138
6.15123
7.0793
7.62943
7.65789
7.44713
7.14349
6.81424
6.48837
6.18118
5.903
5.67064
5.4869
5.36377
5.41592
5.22016
5.11902
5.08531
5.07303
5.05737
5.02604
4.97855
4.91568
4.83543
4.74421
4.65299
4.59261
4.56233
4.58334
4.7993
5.28278
6.09457
6.99013
7.53812
7.56681
7.33395
7.00008
6.64748
6.30601
5.99204
5.71461
5.48428
5.30339
5.18967
5.27793
5.13596
5.07481
5.06208
5.06417
5.06072
5.04196
5.00672
4.95535
4.88731
4.8111
4.73745
4.69364
4.67131
4.6956
4.88623
5.32497
6.10171
6.96558
7.49974
7.53348
7.27767
6.91815
6.54565
6.1889
5.86545
5.58244
5.34873
5.16698
5.04935
5.19241
5.10722
5.08115
5.08716
5.10516
5.11526
5.10963
5.08741
5.05008
4.99755
4.93906
4.88427
4.85726
4.84402
4.87082
5.03422
5.42715
6.15191
6.98892
7.51524
7.55074
7.26345
6.88425
6.49643
6.126
5.79282
5.50466
5.26844
5.0861
4.96549
5.17431
5.13491
5.13873
5.16782
5.20472
5.23113
5.24132
5.2351
5.21682
5.1854
5.15
5.11776
5.10995
5.10795
5.13669
5.26931
5.60889
6.26302
7.05726
7.57486
7.62618
7.31582
6.90608
6.49689
6.11365
5.77201
5.47866
5.23953
5.0566
4.93716
5.22192
5.22223
5.26051
5.31621
5.3768
5.4243
5.45647
5.47391
5.48346
5.48449
5.48399
5.47977
5.49892
5.51381
5.54504
5.64041
5.9125
6.47797
7.20505
7.70381
7.7684
7.4437
7.01891
6.59011
6.18916
5.83384
5.53112
5.28617
5.1022
4.98434
5.34814
5.38744
5.46366
5.55292
5.64562
5.72407
5.79048
5.84563
5.90807
5.96386
6.01809
6.06115
6.11603
6.1617
6.19917
6.24677
6.42764
6.87271
7.50096
7.95332
8.01451
7.66728
7.22399
6.78253
6.36896
6.0011
5.6865
5.43026
5.23823
5.11992
5.57646
5.65836
5.78188
5.91788
6.05887
6.18878
6.31602
6.4481
6.59558
6.74743
6.90079
7.03984
7.15393
7.26587
7.32226
7.30625
7.35028
7.62145
8.09424
8.45787
8.46817
8.06543
7.58625
7.11942
6.68543
6.29959
5.96792
5.69597
5.49175
5.36917
5.96342
6.09811
6.28951
6.50027
6.72457
6.95114
7.19758
7.47635
7.79014
8.12749
8.47699
8.8098
9.07728
9.31999
9.4321
9.33404
9.14416
9.13181
9.34864
9.534
9.39643
8.85797
8.28507
7.75029
7.26336
6.83415
6.46491
6.15969
5.92843
5.79001
6.6543
6.87286
7.17972
7.53054
7.92146
8.35128
8.84992
9.43155
10.0892
10.8111
11.5731
12.3221
12.9816
13.4702
13.7229
13.5055
12.9025
12.3642
12.1135
11.9366
11.4703
10.6285
9.82045
9.0968
8.45567
7.89919
7.4239
7.02845
6.72459
6.53665
8.12352
8.50937
9.05249
9.69847
10.4639
11.3537
12.4076
13.6385
15.0169
16.5309
18.1304
19.7103
21.1403
22.1256
22.5289
22.0356
20.689
19.2401
18.1328
17.2738
16.2108
14.8283
13.5432
12.3727
11.3248
10.408
9.6239
8.96334
8.44822
8.10908
11.9459
12.7268
13.8104
15.1168
16.7242
18.6105
20.7833
23.2602
25.9285
28.749
31.5941
34.2627
36.5032
37.7819
37.7175
36.3282
33.8738
31.3081
29.1206
27.4354
25.8024
24.0035
22.2275
20.4569
18.6893
16.9969
15.4477
14.0739
12.9526
12.1521
23.0263
24.6354
26.7074
29.1057
31.9876
35.2226
38.7154
42.3569
45.9801
49.1211
51.7117
53.6109
54.3648
53.4847
51.1662
47.875
44.5507
41.6367
39.2437
37.6281
36.6889
36.2579
35.593
34.7234
33.4615
31.791
29.7471
27.4612
25.3134
23.6013
42.7462
45.6102
48.3368
50.6883
52.9986
55.0486
56.7549
58.0728
58.8797
58.4799
57.2378
55.4399
53.0921
50.2138
46.3557
42.6831
39.7837
37.5462
35.8405
34.8652
34.6706
35.2739
36.4318
37.9346
39.5109
40.9818
42.1575
42.8105
42.771
42.8227
16.9254
19.2278
20.0985
20.1626
19.561
18.4509
16.9462
15.1698
13.2549
11.367
9.66813
8.30886
7.77359
8.9412
12.3366
19.2716
27.3016
37.6011
42.9277
44.2824
42.3512
38.6152
33.9522
29.104
24.5448
20.4825
17.0827
14.0372
11.7792
9.85035
10.265
10.1595
10.2545
10.3664
10.2825
9.96415
9.4153
8.68164
7.83291
6.95169
6.18121
5.57159
5.64471
6.86173
9.3194
13.5041
17.9619
22.767
24.9909
25.5326
24.7198
23.06
20.9226
18.5628
16.207
13.992
12.0764
10.3299
9.08794
8.1037
9.72244
9.03766
8.6891
8.58051
8.50621
8.33723
8.01796
7.54941
6.97412
6.35534
5.82895
5.44932
5.66506
6.86304
9.04346
12.4858
16.0132
19.5595
21.1836
21.5973
21.0814
19.9363
18.4051
16.651
14.8384
13.102
11.5425
10.0763
9.0316
8.2797
9.63569
8.63198
8.09277
7.86762
7.77455
7.66249
7.45108
7.11842
6.69151
6.21644
5.84724
5.60035
5.88706
7.04335
8.9989
11.9535
14.9391
17.8178
19.1891
19.5702
19.2243
18.3616
17.1585
15.7362
14.2271
12.7313
11.3637
10.0629
9.13715
8.48475
9.48826
8.36485
7.72002
7.43499
7.33155
7.2523
7.10844
6.86763
6.5469
6.19002
5.92453
5.77739
6.10435
7.19192
8.9318
11.4776
14.042
16.4587
17.6709
18.0386
17.8114
17.149
16.1824
15.0048
13.722
12.4025
11.1841
10.0161
9.14105
8.54899
9.24836
8.10376
7.41588
7.10569
7.0002
6.94377
6.84803
6.6772
6.44266
6.1855
5.99895
5.92918
6.27625
7.28097
8.80606
10.9872
13.1937
15.2527
16.3427
16.6968
16.5519
16.0398
15.2582
14.2779
13.1821
12.019
10.9243
9.87397
9.03825
8.47921
8.95087
7.83039
7.13979
6.82692
6.72535
6.68676
6.62756
6.5125
6.35002
6.17359
6.05155
6.04388
6.3954
7.28612
8.62201
10.477
12.3721
14.1414
15.128
15.4639
15.3727
14.9731
14.3378
13.5206
12.5841
11.5759
10.5813
9.63525
8.84281
8.30885
8.61338
7.54815
6.88071
6.57971
6.48628
6.46263
6.43186
6.36161
6.25791
6.14434
6.0776
6.12009
6.46543
7.24752
8.39095
9.95589
11.5809
13.1143
14.0115
14.3229
14.2621
13.943
13.4224
12.7402
11.9404
11.065
10.1804
9.32307
8.57884
8.06654
8.25471
7.26302
6.63582
6.356
6.27381
6.26313
6.25445
6.21975
6.163
6.10087
6.07782
6.15811
6.47227
7.16542
8.13157
9.43338
10.8289
12.1719
12.9922
13.2754
13.2266
12.9611
12.5256
11.9522
11.2698
10.5115
9.73034
8.96379
8.27222
7.78224
7.89154
6.98188
6.405
6.15209
6.0833
6.08395
6.09175
6.08472
6.06448
6.04332
6.05477
6.15262
6.44546
7.04652
7.85745
8.92825
10.131
11.3171
12.0768
12.3289
12.2777
12.0424
11.6672
11.178
10.5931
9.93672
9.25001
8.57285
7.94223
7.47759
7.53493
6.71071
6.18889
5.96612
5.91199
5.92199
5.94237
5.95557
5.96287
5.97309
6.01039
6.12262
6.39188
6.90379
7.58125
8.4751
9.51581
10.5683
11.275
11.4924
11.4265
11.2011
10.8645
10.438
9.93095
9.36126
8.75924
8.16466
7.59932
7.16701
7.19004
6.4525
5.98808
5.7969
5.75769
5.77531
5.80498
5.83271
5.8598
5.89289
5.94941
6.06955
6.31613
6.75284
7.32689
8.07658
8.98278
9.92167
10.5854
10.7757
10.6849
10.4498
10.1313
9.7471
9.30026
8.80241
8.27501
7.75548
7.25552
6.86046
6.86079
6.20889
5.80279
5.64356
5.61897
5.64271
5.67915
5.71715
5.75826
5.80769
5.87823
6.00304
6.23186
6.6145
7.10199
7.73501
8.53007
9.37385
10.0033
10.1709
10.0543
9.80083
9.47985
9.11723
8.71336
8.27302
7.80993
7.35678
6.91884
6.56588
6.54969
5.98109
5.63326
5.50571
5.49502
5.52399
5.56582
5.61147
5.66289
5.72435
5.80571
5.93576
6.15802
6.49565
6.91356
7.45277
8.15554
8.92136
9.52368
9.67522
9.53387
9.25519
8.9196
8.56037
8.18069
7.78287
7.37292
6.97636
6.59456
6.28292
6.25838
5.77045
5.48033
5.38402
5.38606
5.42049
5.46783
5.52043
5.58049
5.65252
5.74468
5.88465
6.10438
6.40554
6.76836
7.2323
7.85804
8.5616
9.1407
9.2853
9.12203
8.81392
8.45502
8.08634
7.71442
7.34166
6.97144
6.6203
6.28725
6.0148
5.98722
5.57888
5.34651
5.28108
5.29483
5.33639
5.39101
5.45177
5.52112
5.60608
5.71477
5.8629
6.08074
6.35429
6.67368
7.07635
7.6378
8.29125
8.84971
8.99772
8.81692
8.47703
8.08987
7.70124
7.32362
6.96166
6.61489
6.29608
6.0024
5.76506
5.74644
5.41358
5.23703
5.20172
5.22765
5.27919
5.34526
5.4181
5.49888
5.59463
5.71631
5.87785
6.09647
6.34897
6.6385
6.98982
7.49692
8.10744
8.64833
8.80945
8.61761
8.24495
7.82641
7.41058
7.01613
6.65135
6.31479
6.01486
5.74823
5.5394
5.54411
5.28423
5.1613
5.15446
5.19458
5.25783
5.33558
5.42372
5.525
5.6376
5.77743
5.95147
6.17401
6.41205
6.67618
6.98215
7.44146
8.01091
8.53628
8.71852
8.52317
8.12063
7.66866
7.21959
6.79935
6.42011
6.08181
5.7885
5.53711
5.34735
5.3911
5.20042
5.13002
5.14456
5.2036
5.28828
5.38549
5.49337
5.61455
5.74914
5.91101
6.10015
6.33163
6.56157
6.80696
7.07034
7.48317
8.02523
8.53751
8.72456
8.50752
8.07348
7.59419
7.11633
6.6726
6.27646
5.92757
5.62929
5.38139
5.20316
5.29776
5.18472
5.15179
5.19124
5.27587
5.38372
5.5059
5.63984
5.78947
5.9547
6.14604
6.35697
6.60185
6.83086
7.06436
7.28483
7.64626
8.13998
8.63027
8.83537
8.6234
8.14212
7.59996
7.08664
6.61942
6.20545
5.84323
5.53744
5.28993
5.11618
5.29398
5.23238
5.23731
5.3106
5.42678
5.56605
5.72206
5.89272
6.08397
6.29364
6.5275
6.7721
7.04065
7.27666
7.50629
7.68022
7.97872
8.40788
8.85974
9.07195
8.86848
8.35674
7.77588
7.20208
6.67648
6.21685
5.82892
5.5115
5.25975
5.08745
5.37807
5.36222
5.41465
5.52894
5.68683
5.87012
6.07483
6.30034
6.5548
6.83186
7.13135
7.43146
7.74223
8.00196
8.23594
8.35629
8.57087
8.90683
9.29709
9.49124
9.27846
8.73287
8.1075
7.48254
6.90777
6.40316
5.97342
5.62149
5.34906
5.16425
5.58607
5.61412
5.72204
5.88981
6.10737
6.35641
6.63593
6.94818
7.30293
7.68761
8.09407
8.49006
8.87859
9.193
9.44918
9.50433
9.60009
9.79629
10.081
10.2141
9.9527
9.34751
8.65997
7.96793
7.32814
6.7646
6.28319
5.88676
5.57898
5.37471
5.96874
6.05005
6.22981
6.47503
6.785
7.13953
7.54217
7.99951
8.52045
9.0846
9.67421
10.2421
10.7783
11.2057
11.5226
11.5035
11.4164
11.3909
11.4937
11.4914
11.1064
10.3843
9.58793
8.79024
8.04892
7.39543
6.83618
6.37287
6.01151
5.77412
6.64084
6.79767
7.0854
7.45582
7.92083
8.45689
9.07478
9.78628
10.5956
11.4703
12.3822
13.2629
14.082
14.7289
15.177
15.0772
14.7055
14.3089
14.1013
13.8257
13.1928
12.2452
11.2388
10.2519
9.33065
8.5151
7.8178
7.23751
6.78188
6.48148
7.8821
8.16435
8.63557
9.22756
9.97102
10.8388
11.8494
13.0194
14.3376
15.7536
17.2255
18.6534
19.9788
21.0009
21.6495
21.4282
20.5972
19.5967
18.78
18.0417
17.0688
15.757
14.3752
13.0371
11.7856
10.6569
9.68339
8.86947
8.2225
7.78898
10.4517
10.9657
11.7727
12.7734
14.0341
15.5141
17.2337
19.2016
21.3692
23.6468
25.9746
28.1988
30.2184
31.6306
32.2706
31.2644
29.3347
27.3152
25.6929
24.4136
23.2043
21.9043
20.3861
18.5685
16.7819
15.1041
13.589
12.291
11.2257
10.488
16.4545
17.3885
18.7836
20.4832
22.612
25.0784
27.8748
30.9533
34.1948
37.4132
40.5124
43.2536
45.3758
45.9206
44.8444
41.9819
38.7268
35.6995
33.3678
31.7526
30.6816
29.9467
29.1809
28.1237
26.4486
24.3158
22.111
20.031
18.1544
16.7566
30.2584
31.8004
33.8848
36.3054
39.2235
42.4908
45.9939
49.554
52.9872
55.9016
57.9818
59.0115
58.2941
56.0033
52.3499
47.4723
43.1831
39.6835
37.1367
35.6593
35.2002
35.5911
36.3209
37.1008
37.605
37.6831
36.839
35.0997
32.9156
30.9209
46.9631
49.8631
52.5932
54.8383
56.9529
59.1345
61.0957
62.6626
63.518
63.3622
61.8416
59.3333
55.8633
51.5173
46.355
40.9181
36.7323
33.6239
31.4504
30.3501
30.2695
31.2267
32.9414
35.1628
37.6478
40.1136
42.4216
44.36
45.7625
46.9047
22.6469
25.5782
26.2797
26.2744
25.5118
24.1323
22.2648
20.0447
17.6111
15.1299
12.7552
10.8624
12.0455
17.8888
26.3156
38.3554
50.9018
65.408
71.7775
71.6845
67.1936
60.6524
53.1653
45.6757
38.6596
32.3355
26.868
21.8283
17.7146
13.9602
12.6708
12.4515
12.3398
12.4811
12.4646
12.1873
11.6355
10.8473
9.89447
8.84141
7.84728
7.09683
8.35751
11.971
16.7012
22.6847
28.6111
34.5802
36.7591
36.5011
34.598
31.8218
28.6624
25.3876
22.1985
19.204
16.5564
14.0999
12.2892
10.6253
11.6317
10.6652
10.1206
9.98329
9.95407
9.84751
9.57451
9.1177
8.5189
7.82601
7.19911
6.8206
8.08603
11.0481
14.8219
19.3327
23.7914
28.0335
29.475
29.2358
27.9182
25.9933
23.7838
21.4427
19.1062
16.849
14.8154
12.9116
11.5245
10.3183
11.2544
9.94447
9.22142
8.95617
8.89965
8.85129
8.69871
8.40131
7.98755
7.49935
7.08549
6.9392
8.16243
10.735
13.9434
17.6476
21.3064
24.6395
25.7901
25.6164
24.6241
23.1399
21.4109
19.5457
17.6465
15.7682
14.0425
12.3959
11.1665
10.1293
10.8794
9.42867
8.64209
8.32763
8.26111
8.24294
8.16099
7.96779
7.68491
7.34966
7.10203
7.12626
8.30729
10.5624
13.31
16.4218
19.4664
22.1679
23.1488
23.0364
22.2721
21.0874
19.6851
18.1483
16.5552
14.9478
13.4268
11.9703
10.828
9.90831
10.4108
8.97478
8.18206
7.85991
7.7959
7.79758
7.76471
7.64998
7.4707
7.26127
7.14397
7.30965
8.43573
10.4167
12.7691
15.3716
17.9089
20.1167
20.9717
20.9037
20.3079
19.3476
18.1915
16.9069
15.5532
14.1643
12.8202
11.5151
10.4392
9.61649
9.90472
8.54744
7.78763
7.48042
7.42601
7.44316
7.44705
7.39547
7.30154
7.19791
7.19062
7.46883
8.52991
10.2664
12.2692
14.4252
16.5298
18.3355
19.0811
19.0391
18.566
17.7794
16.8177
15.7352
14.5767
13.3706
12.1819
11.0141
10.0042
9.24875
9.39641
8.14931
7.44256
7.16173
7.12021
7.151
7.18295
7.18285
7.15977
7.14472
7.23455
7.59866
8.58706
10.1041
11.7958
13.5629
15.2996
16.773
17.4168
17.3843
16.9966
16.34
15.5297
14.6129
13.6204
12.5716
11.5196
10.4859
9.5489
8.84925
8.90964
7.78319
7.13902
6.88996
6.86278
6.90569
6.96091
7.00172
7.03687
7.09372
7.26878
7.7007
8.60493
9.92976
11.3469
12.7814
14.2096
15.4096
15.9577
15.9216
15.5884
15.0264
14.3313
13.5472
12.6933
11.7823
10.8541
9.94082
9.08987
8.44581
8.45468
7.45
6.87166
6.65663
6.64406
6.69782
6.7721
6.84578
6.9276
7.04371
7.28805
7.76952
8.59638
9.74728
10.9262
12.0837
13.26
14.2376
14.6968
14.6472
14.3422
13.8447
13.2356
12.5543
11.8139
11.0213
10.2059
9.40341
8.64237
8.05557
8.03684
7.14925
6.63629
6.45604
6.45721
6.52074
6.61057
6.71045
6.82956
6.99625
7.29212
7.80685
8.57048
9.56262
10.5412
11.4808
12.4459
13.2453
13.6323
13.5623
13.2611
12.8008
12.2517
11.648
10.9984
10.3061
9.5913
8.89003
8.21745
7.68872
7.65666
6.87848
6.42917
6.28352
6.29704
6.36958
6.47222
6.59316
6.74177
6.95106
7.28693
7.81776
8.53185
9.38505
10.2059
10.9636
11.7516
12.4072
12.7349
12.6509
12.3492
11.9002
11.3863
10.8366
10.2572
9.64789
9.02112
8.41004
7.8209
7.35003
7.3112
6.63411
6.24673
6.13491
6.16001
6.24095
6.35475
6.49318
6.66729
6.91069
7.27782
7.81447
8.48873
9.22886
9.91988
10.5265
11.1668
11.7062
11.9875
11.8949
11.5894
11.1461
10.6458
10.1258
9.59594
9.05238
8.50048
7.9672
7.45451
7.04056
6.99656
6.413
6.08613
6.0073
6.04373
6.13323
6.25783
6.41208
6.61136
6.87898
7.26968
7.80875
8.45296
9.10214
9.68499
10.1668
10.6845
11.1304
11.3775
11.2814
10.9703
10.5255
10.0292
9.52227
9.01961
8.52299
8.03102
7.56257
7.11767
6.75947
6.70939
6.21334
5.9462
5.89952
5.94779
6.0473
6.18406
6.35628
6.57347
6.86096
7.26931
7.8127
8.43324
9.01209
9.50558
9.88493
10.3015
10.6722
10.8961
10.8017
10.4842
10.0332
9.53217
9.02595
8.53428
8.06394
7.61518
7.19746
6.80955
6.50121
6.44759
6.03575
5.82859
5.81276
5.87457
5.98763
6.13775
6.32494
6.55912
6.87071
7.31019
7.85545
8.4404
8.96928
9.38963
9.68486
10.0192
10.3276
10.5378
10.4511
10.1278
9.66614
9.15269
8.6365
8.14263
7.68299
7.25699
6.87528
6.53203
6.26543
6.21617
5.88525
5.739
5.75058
5.83025
5.95722
6.12002
6.32482
6.59457
6.94427
7.40832
7.95288
8.51304
8.98285
9.35016
9.57585
9.84276
10.0987
10.3014
10.2298
9.90158
9.42401
8.891
8.35557
7.84762
7.38485
6.96722
6.60303
6.28927
6.05567
6.02604
5.77435
5.68672
5.72196
5.8162
5.96305
6.15837
6.40029
6.70139
7.0812
7.56642
8.11253
8.65482
9.08456
9.40846
9.57672
9.78437
9.99665
10.1913
10.1437
9.80694
9.3029
8.74418
8.18564
7.6566
7.17717
6.7538
6.39272
6.092
5.87886
5.88889
5.71858
5.67842
5.73759
5.86586
6.04541
6.27237
6.54754
6.88466
7.29879
7.8099
8.36324
8.89723
9.30118
9.5973
9.71295
9.86692
10.04
10.2238
10.1974
9.82083
9.27271
8.68459
8.10092
7.54684
7.04785
6.61396
6.2497
5.95441
5.75071
5.82569
5.72969
5.72706
5.82285
5.98802
6.20584
6.47293
6.79077
7.17404
7.6323
8.17705
8.74807
9.28777
9.68236
9.96932
10.0334
10.1314
10.2622
10.425
10.4114
10.0345
9.44858
8.78753
8.126
7.52239
6.99705
6.5464
6.17306
5.87635
5.67783
5.84772
5.8066
5.85516
5.99551
6.20593
6.47362
6.79369
7.16894
7.61509
8.13527
8.73137
9.33775
9.90148
10.3065
10.6102
10.619
10.6538
10.7231
10.8438
10.8192
10.4383
9.82081
9.10346
8.38284
7.7061
7.09873
6.58597
6.17414
5.86485
5.66705
5.97814
5.98521
6.09553
6.29164
6.56084
6.89602
7.28951
7.746
8.28244
8.89386
9.57173
10.2439
10.8618
11.3088
11.659
11.6094
11.5678
11.5223
11.5652
11.4961
11.0949
10.4385
9.65323
8.85387
8.10085
7.41892
6.8367
6.36799
6.01413
5.78776
6.26101
6.32166
6.50289
6.77298
7.12359
7.55431
8.05495
8.63195
9.30319
10.054
10.864
11.6527
12.3749
12.9121
13.3501
13.2407
13.0602
12.8219
12.7253
12.5669
12.1203
11.414
10.5581
9.63434
8.77037
7.98862
7.31115
6.75958
6.34025
6.07568
6.77791
6.90382
7.17717
7.55208
8.0226
8.59668
9.26074
10.0233
10.902
11.8699
12.8939
13.8821
14.7904
15.4918
16.0733
15.8854
15.4091
14.86
14.5275
14.2176
13.6956
12.9331
11.9975
10.9282
9.88602
8.95237
8.13515
7.45817
6.93939
6.61143
7.69327
7.90955
8.31658
8.84935
9.50641
10.306
11.2272
12.2821
13.4856
14.7921
16.1562
17.4704
18.6874
19.6516
20.4272
19.8897
18.9222
17.8925
17.1993
16.6629
16.0504
15.2597
14.2772
13.1016
11.7946
10.6078
9.57011
8.68972
8.0045
7.56408
9.37425
9.72758
10.3427
11.124
12.0798
13.2411
14.5691
16.0819
17.7825
19.5972
21.4652
23.2591
24.9129
26.1898
26.9061
25.4543
23.6893
21.9739
20.7931
19.9807
19.3225
18.6246
17.7435
16.5891
15.1828
13.5775
12.1669
10.9489
9.96633
9.31411
12.6824
13.2479
14.1879
15.3541
16.7728
18.488
20.4198
22.5905
24.9713
27.4384
29.9088
32.2228
34.2315
35.3477
35.0294
31.9167
29.0288
26.4755
24.7697
23.7232
23.1604
22.8333
22.4184
21.6779
20.5425
18.9884
17.0503
15.3051
13.8076
12.756
19.5358
20.3905
21.762
23.4208
25.4299
27.8101
30.4351
33.2925
36.2956
39.2397
41.9719
44.2586
45.5749
44.8842
42.5356
37.1288
33.0418
29.7663
27.6884
26.5611
26.2753
26.5959
27.1076
27.4697
27.4298
26.8011
25.5544
23.5984
21.4916
19.8601
32.3013
33.5704
35.2901
37.2384
39.5364
42.1621
44.9577
47.8157
50.572
52.9348
54.4837
54.7769
53.3366
50.0581
45.1702
37.8674
32.9874
29.4562
27.3171
26.3241
26.3226
27.2808
28.8175
30.5888
32.3154
33.7095
34.5251
34.6954
34.0731
32.8101
42.6088
45.6199
48.2361
50.4259
52.4099
54.2578
55.9829
57.4315
58.2882
58.3489
57.0716
54.5311
50.6327
45.5652
39.4544
31.9713
27.2307
24.0908
22.2152
21.3801
21.4435
22.4472
24.1861
26.4674
29.115
31.9294
34.7744
37.4222
39.8058
42.122
28.589
32.3811
32.7961
32.6388
31.7108
30.091
27.9103
25.3006
22.3819
19.2596
15.9783
13.4752
18.3429
28.9894
43.2721
62.0039
80.8508
101.842
109.589
106.413
97.4551
86.4222
74.745
63.8854
53.9178
45.0267
37.2914
30.1048
23.9871
18.1993
15.1068
14.8923
14.5893
14.7125
14.7379
14.4822
13.9184
13.0679
12.0068
10.771
9.51055
8.64314
11.8509
17.3102
24.2504
32.5037
40.7686
48.8345
51.1387
49.4906
45.7684
41.2709
36.6258
32.1862
28.0225
24.2148
20.8809
17.7953
15.511
13.1526
13.5445
12.409
11.7019
11.5225
11.5118
11.4339
11.1738
10.6976
10.0509
9.2612
8.50817
8.20113
10.889
15.1407
20.3765
26.4305
32.53
38.0458
39.3722
38.1515
35.5589
32.4455
29.2422
26.1228
23.1589
20.3817
17.9057
15.5831
13.92
12.3065
12.8794
11.3536
10.4834
10.1808