/*--------------------------------*- C++ -*----------------------------------*\
| =========                 |                                                 |
| \\      /  F ield         | OpenFOAM: The Open Source CFD Toolbox           |
|  \\    /   O peration     | Version:  5.0                                   |
|   \\  /    A nd           | Web:      www.OpenFOAM.org                      |
|    \\/     M anipulation  |                                                 |
\*---------------------------------------------------------------------------*/
FoamFile
{
    version     2.0;
    format      ascii;
    class       volScalarField;
    location    "450/air";
    object      k;
}
// * * * * * * * * * * * * * * * * * * * * * * * * * * * * * * * * * * * * * //

dimensions      [0 2 -2 0 0 0 0];

internalField   nonuniform List<scalar> 
243000
(
0.108002
0.113214
0.113294
0.111178
0.10738
0.102425
0.0966359
0.0902845
0.0836302
0.0770344
0.0709623
0.0659139
0.0613143
0.0568198
0.0518353
0.0464124
0.0423949
0.0567509
0.0837156
0.101872
0.104624
0.0986923
0.087749
0.0753668
0.0671466
0.0624174
0.0603381
0.0600522
0.0626791
0.068916
0.185249
0.188576
0.183624
0.175594
0.166394
0.156653
0.146652
0.136571
0.126617
0.117179
0.10868
0.101629
0.0952743
0.0895263
0.083007
0.0760634
0.073772
0.106987
0.160309
0.192489
0.197909
0.18897
0.171586
0.15136
0.134683
0.124533
0.119703
0.117441
0.119741
0.126702
0.22716
0.229799
0.223172
0.21322
0.201874
0.189902
0.177674
0.165455
0.153538
0.142426
0.132656
0.124683
0.117245
0.110309
0.102208
0.0935849
0.0920803
0.13587
0.203044
0.242243
0.250128
0.241038
0.22208
0.199569
0.178975
0.165239
0.158359
0.154907
0.156966
0.164233
0.256481
0.259011
0.251935
0.241437
0.229305
0.216304
0.202853
0.189316
0.176095
0.163849
0.15325
0.14467
0.136361
0.128251
0.118461
0.107883
0.10635
0.157252
0.23426
0.278288
0.288514
0.280239
0.261273
0.238192
0.216085
0.19966
0.190913
0.186493
0.188356
0.196169
0.27809
0.280421
0.273432
0.263038
0.250836
0.237507
0.223474
0.209186
0.19516
0.182201
0.171062
0.162024
0.15296
0.143688
0.132136
0.1194
0.117278
0.17248
0.256261
0.303826
0.316264
0.309391
0.291315
0.268727
0.246322
0.228734
0.218391
0.213234
0.214842
0.223638
0.29441
0.296459
0.28979
0.279819
0.267919
0.254664
0.240453
0.225801
0.211334
0.197965
0.186468
0.177041
0.167282
0.156852
0.143467
0.128497
0.126444
0.182579
0.270481
0.321034
0.335468
0.330305
0.313656
0.292236
0.270365
0.252578
0.241417
0.235815
0.237164
0.246795
0.306829
0.308578
0.30235
0.292963
0.281555
0.268598
0.254461
0.23971
0.225057
0.211484
0.199744
0.189946
0.17951
0.167917
0.152661
0.135711
0.134546
0.188616
0.278198
0.331327
0.34767
0.344347
0.329438
0.309621
0.288879
0.271551
0.260266
0.254645
0.255848
0.265998
0.316184
0.317684
0.311978
0.30326
0.292442
0.279906
0.266
0.251324
0.236659
0.223016
0.211099
0.200918
0.189812
0.177029
0.159932
0.142282
0.141703
0.192567
0.281416
0.335885
0.354147
0.352607
0.339633
0.321715
0.302497
0.286122
0.275221
0.269995
0.271181
0.281663
0.323006
0.324358
0.319247
0.31125
0.301074
0.289027
0.275441
0.260954
0.246389
0.232761
0.220696
0.210112
0.198336
0.18433
0.165516
0.148134
0.148057
0.196343
0.281512
0.336648
0.35598
0.355985
0.345194
0.329355
0.311849
0.296761
0.286649
0.282125
0.283457
0.294178
0.327719
0.32899
0.324542
0.3173
0.307795
0.296272
0.283063
0.268833
0.254439
0.240871
0.228668
0.217665
0.205198
0.189975
0.169739
0.153231
0.153699
0.199522
0.278391
0.333517
0.353915
0.355149
0.346169
0.332721
0.317472
0.303904
0.294898
0.291327
0.292981
0.303892
0.330599
0.33188
0.32811
0.321639
0.312819
0.301844
0.289057
0.275132
0.260952
0.247469
0.235128
0.2237
0.210504
0.194128
0.17325
0.15773
0.158689
0.202077
0.274522
0.327153
0.348646
0.351078
0.343844
0.332197
0.319275
0.307833
0.300143
0.297822
0.300028
0.311111
0.331841
0.333243
0.330144
0.324459
0.31632
0.305884
0.293509
0.279938
0.266025
0.252653
0.240181
0.228296
0.214377
0.196973
0.176581
0.161792
0.163098
0.204036
0.270858
0.319475
0.340986
0.344421
0.338817
0.32904
0.318017
0.308582
0.302745
0.301778
0.304688
0.316065
0.331548
0.333248
0.33087
0.325939
0.318465
0.308566
0.29662
0.283381
0.269712
0.256489
0.2439
0.231551
0.216923
0.198756
0.17952
0.165466
0.166974
0.205437
0.267255
0.312612
0.332943
0.336218
0.331772
0.323656
0.31453
0.306929
0.302841
0.303358
0.307091
0.319014
0.329928
0.331997
0.33043
0.326246
0.319376
0.309988
0.298473
0.285591
0.272181
0.259055
0.246327
0.233519
0.218304
0.199994
0.182103
0.168795
0.170365
0.206319
0.263591
0.306213
0.325553
0.328789
0.324813
0.317336
0.309215
0.303311
0.300903
0.302937
0.307638
0.32011
0.327
0.329522
0.328774
0.325388
0.319179
0.31029
0.299184
0.28666
0.273531
0.260528
0.247673
0.234469
0.218849
0.201322
0.184469
0.171836
0.173324
0.206742
0.259787
0.300031
0.318561
0.321831
0.31828
0.311453
0.304093
0.298485
0.297157
0.300563
0.306405
0.319536
0.322731
0.325835
0.325954
0.323335
0.317786
0.30944
0.298825
0.286734
0.273901
0.261035
0.248107
0.234608
0.219023
0.20262
0.18668
0.174635
0.175899
0.206705
0.255794
0.293915
0.31179
0.315134
0.311988
0.305814
0.299181
0.293994
0.292563
0.296531
0.303417
0.317276
0.317181
0.320981
0.321968
0.320133
0.315184
0.307413
0.297316
0.285714
0.273274
0.260626
0.247691
0.234051
0.219395
0.203934
0.188791
0.177233
0.178135
0.206245
0.251599
0.28777
0.30511
0.308556
0.305807
0.30028
0.29435
0.289668
0.288284
0.291544
0.298867
0.3134
0.3105
0.315028
0.316863
0.315806
0.311464
0.304216
0.294705
0.283654
0.271673
0.259377
0.246875
0.23384
0.219951
0.205292
0.190842
0.179671
0.180065
0.205421
0.247186
0.28153
0.298425
0.301997
0.299645
0.294753
0.2895
0.285388
0.284165
0.286946
0.293472
0.307964
0.303901
0.308711
0.311113
0.310605
0.306846
0.300245
0.291483
0.281225
0.270006
0.258354
0.246358
0.233902
0.220676
0.206717
0.192873
0.18199
0.181756
0.204288
0.242534
0.275143
0.291662
0.295393
0.293444
0.289175
0.284575
0.281076
0.280085
0.282565
0.288495
0.301289
0.297783
0.302821
0.305682
0.305676
0.302457
0.296463
0.288413
0.278932
0.268478
0.257491
0.246055
0.234162
0.221552
0.208226
0.19492
0.184238
0.183266
0.202922
0.237698
0.268581
0.284765
0.2887
0.287169
0.283513
0.279579
0.276686
0.275968
0.278276
0.283743
0.294896
0.291954
0.297181
0.300437
0.300886
0.298179
0.292771
0.285417
0.276707
0.267026
0.256733
0.245911
0.234591
0.222574
0.20984
0.197018
0.186463
0.184645
0.201402
0.232749
0.261845
0.277694
0.281864
0.280779
0.277751
0.274505
0.272199
0.271774
0.273999
0.279099
0.288931
0.286268
0.291667
0.295255
0.296128
0.293929
0.2891
0.282437
0.2745
0.265607
0.256045
0.245901
0.235175
0.223732
0.211574
0.199207
0.18872
0.185974
0.199831
0.227741
0.254955
0.270433
0.274854
0.274231
0.271853
0.269309
0.267575
0.267451
0.269652
0.274452
0.283186
0.280598
0.286156
0.290046
0.291329
0.289639
0.285401
0.279437
0.272272
0.264203
0.255417
0.246
0.235916
0.22506
0.213471
0.201546
0.191092
0.187363
0.198321
0.222787
0.24798
0.263006
0.267685
0.267534
0.265833
0.263974
0.262787
0.262959
0.265177
0.269731
0.27751
0.274829
0.280596
0.284773
0.28644
0.285262
0.281641
0.276397
0.270034
0.262815
0.254855
0.246239
0.236861
0.226629
0.215634
0.204176
0.193757
0.189021
0.197101
0.218096
0.241101
0.255536
0.260444
0.26076
0.259722
0.258505
0.25784
0.258317
0.260565
0.264897
0.271825
0.268956
0.274974
0.279415
0.281432
0.280769
0.277801
0.273324
0.267818
0.261498
0.25448
0.246775
0.238185
0.228723
0.218428
0.207527
0.197205
0.191461
0.196789
0.214153
0.234719
0.248366
0.253392
0.254123
0.253669
0.253028
0.25283
0.253593
0.255866
0.259967
0.266122
0.263043
0.269271
0.27401
0.276334
0.27621
0.273967
0.270365
0.265835
0.260657
0.254802
0.248167
0.240719
0.232349
0.223028
0.212913
0.202833
0.196096
0.198598
0.212199
0.229854
0.242419
0.247317
0.248237
0.24814
0.247902
0.24804
0.249005
0.251249
0.255046
0.260469
0.257529
0.263898
0.268931
0.271642
0.272174
0.270908
0.268557
0.265538
0.261914
0.257761
0.252951
0.247362
0.240792
0.233081
0.224207
0.214605
0.206804
0.206417
0.215739
0.230058
0.24054
0.244576
0.245142
0.244855
0.244537
0.244638
0.245496
0.247455
0.250716
0.255311
0.254929
0.261587
0.26719
0.270957
0.272916
0.273666
0.273759
0.273513
0.2729
0.271961
0.270531
0.268312
0.264862
0.259711
0.252708
0.243798
0.234805
0.231001
0.235293
0.244627
0.25183
0.253748
0.252585
0.250846
0.249225
0.248103
0.247781
0.24848
0.250345
0.253369
0.277941
0.28556
0.292965
0.299794
0.30594
0.311554
0.316835
0.321803
0.326317
0.330775
0.334703
0.337422
0.337976
0.335821
0.330527
0.322124
0.31197
0.304615
0.303136
0.306021
0.30827
0.306385
0.30209
0.297374
0.292639
0.288183
0.284293
0.281097
0.278918
0.278203
0.471403
0.478299
0.485708
0.493251
0.502006
0.509336
0.515023
0.519179
0.522109
0.5271
0.531403
0.533687
0.532815
0.52897
0.521769
0.51289
0.503393
0.496787
0.493526
0.493762
0.495017
0.495507
0.49527
0.494604
0.493087
0.490634
0.487353
0.483172
0.478516
0.473913
0.162808
0.176439
0.178397
0.174873
0.16765
0.157973
0.146552
0.133968
0.120824
0.107972
0.096419
0.0869873
0.0788157
0.0732377
0.0707865
0.0834083
0.118086
0.167248
0.195522
0.209209
0.209175
0.200197
0.185679
0.16894
0.152733
0.138114
0.126303
0.115277
0.109776
0.106439
0.28695
0.296042
0.285767
0.269127
0.250445
0.231236
0.212178
0.193776
0.176504
0.161149
0.14804
0.137706
0.130974
0.132342
0.14053
0.174162
0.242123
0.324726
0.369491
0.390547
0.390175
0.374939
0.350432
0.322342
0.295006
0.269669
0.247635
0.225057
0.207626
0.19878
0.368814
0.374288
0.362011
0.343841
0.323135
0.301228
0.278954
0.257088
0.236491
0.218388
0.20333
0.19142
0.183401
0.18591
0.197808
0.240397
0.326143
0.423847
0.479539
0.507869
0.51118
0.49556
0.468021
0.43518
0.402267
0.371018
0.343355
0.315197
0.293136
0.284423
0.429044
0.428727
0.415341
0.397575
0.377304
0.355207
0.332025
0.308752
0.286525
0.266901
0.25077
0.23781
0.228578
0.230912
0.244206
0.2902
0.384927
0.489122
0.55157
0.58544
0.592895
0.579395
0.552218
0.518385
0.48318
0.449206
0.418786
0.388207
0.364103
0.356032
0.474458
0.46889
0.454653
0.437742
0.418697
0.397464
0.374571
0.351116
0.328426
0.308303
0.291647
0.277919
0.267619
0.268971
0.281964
0.327856
0.425587
0.531988
0.598855
0.636875
0.648185
0.637908
0.612856
0.580183
0.544989
0.510378
0.478959
0.44779
0.422555
0.414867
0.509165
0.499389
0.484511
0.468544
0.450898
0.430935
0.408944
0.386029
0.363655
0.343664
0.326784
0.312427
0.30118
0.300984
0.312321
0.355792
0.451703
0.55815
0.628412
0.669375
0.683826
0.677056
0.655062
0.624853
0.591137
0.557377
0.526155
0.495544
0.469627
0.462091
0.535556
0.52271
0.507505
0.492534
0.476269
0.457689
0.436893
0.414936
0.393319
0.373806
0.356848
0.341915
0.329729
0.327598
0.336139
0.37597
0.466265
0.571385
0.644241
0.687696
0.704404
0.700928
0.682411
0.65551
0.624265
0.592279
0.56214
0.532851
0.506805
0.499138
0.555101
0.540338
0.525221
0.511318
0.496393
0.479185
0.459679
0.438873
0.418229
0.399336
0.382351
0.366844
0.353678
0.349329
0.354193
0.38941
0.472204
0.57595
0.650144
0.695119
0.71351
0.712647
0.697667
0.674636
0.646549
0.617012
0.588547
0.561026
0.535435
0.52746
0.568767
0.553222
0.538694
0.525963
0.512345
0.49646
0.478226
0.458603
0.438986
0.420718
0.403699
0.387616
0.373411
0.366698
0.367647
0.398247
0.474195
0.575281
0.650733
0.696128
0.71453
0.71471
0.703068
0.684251
0.659863
0.633256
0.606895
0.581455
0.55682
0.548483
0.577824
0.562013
0.548637
0.53721
0.524873
0.510251
0.493215
0.474704
0.456063
0.438348
0.421261
0.404601
0.38932
0.380257
0.377912
0.405107
0.474699
0.568399
0.644247
0.689993
0.708925
0.709731
0.700167
0.683605
0.663607
0.641894
0.618573
0.595507
0.572196
0.563494
0.583538
0.567698
0.555556
0.545583
0.534511
0.521081
0.505147
0.487636
0.469852
0.452598
0.435404
0.418182
0.401856
0.390699
0.386682
0.410379
0.473583
0.559912
0.634246
0.680306
0.69885
0.699952
0.692174
0.678243
0.660556
0.641595
0.622638
0.603275
0.582687
0.573712
0.586268
0.570925
0.559937
0.551466
0.541637
0.529316
0.514389
0.497772
0.480708
0.463822
0.446532
0.428802
0.411574
0.398921
0.39385
0.414394
0.471552
0.550771
0.622995
0.669177
0.686328
0.687108
0.680427
0.668722
0.653736
0.637181
0.620735
0.605077
0.588728
0.579899
0.586637
0.572169
0.562386
0.555156
0.54649
0.535195
0.521209
0.505419
0.488986
0.47241
0.455084
0.436928
0.419148
0.406304
0.399896
0.417513
0.468653
0.54141
0.611032
0.656634
0.672922
0.673035
0.666428
0.656222
0.643497
0.629642
0.615557
0.602538
0.589338
0.582064
0.584594
0.571846
0.563314
0.55723
0.54954
0.539108
0.525874
0.510862
0.495082
0.478817
0.461509
0.44317
0.425488
0.412937
0.405216
0.420103
0.465118
0.532159
0.598811
0.643336
0.658547
0.657951
0.65151
0.642034
0.630874
0.619299
0.607784
0.597255
0.586728
0.580809
0.580334
0.569613
0.562965
0.557955
0.551116
0.541501
0.529043
0.514723
0.499507
0.483609
0.466498
0.448398
0.431841
0.418779
0.41015
0.422461
0.461582
0.52328
0.586674
0.629795
0.643859
0.642581
0.636073
0.627003
0.616896
0.606961
0.597771
0.589676
0.581799
0.57725
0.57378
0.565483
0.560976
0.557511
0.551548
0.542741
0.531155
0.517653
0.503071
0.487582
0.47097
0.453798
0.438044
0.424319
0.415021
0.424767
0.458469
0.51495
0.574849
0.616368
0.629363
0.627482
0.620774
0.611881
0.602487
0.59377
0.586223
0.580216
0.574627
0.57165
0.565908
0.560337
0.557952
0.555903
0.5511
0.543353
0.532812
0.520302
0.50657
0.491812
0.476042
0.459653
0.444073
0.430001
0.420156
0.427373
0.455942
0.507286
0.563487
0.603281
0.615399
0.613039
0.606103
0.597281
0.588353
0.580477
0.574132
0.569661
0.565863
0.564275
0.557458
0.554851
0.554604
0.55396
0.550444
0.544088
0.534823
0.523483
0.510681
0.496719
0.481606
0.465711
0.450446
0.436266
0.425904
0.430503
0.454186
0.500357
0.552676
0.590663
0.602171
0.599502
0.592411
0.583682
0.575055
0.567716
0.562206
0.558787
0.55646
0.555921
0.549396
0.549944
0.551687
0.552615
0.550574
0.545416
0.537347
0.527074
0.515286
0.502139
0.487789
0.47254
0.457719
0.443576
0.43266
0.434474
0.453742
0.49428
0.542467
0.578571
0.589775
0.587024
0.579974
0.57144
0.56306
0.556056
0.551058
0.548279
0.546975
0.547983
0.541987
0.545109
0.548864
0.551399
0.550935
0.54709
0.540328
0.531422
0.520853
0.508745
0.4953
0.480806
0.466497
0.452451
0.440915
0.439831
0.45473
0.489328
0.533051
0.567081
0.578233
0.575682
0.568964
0.560832
0.552776
0.546027
0.541314
0.538853
0.538148
0.540537
0.535776
0.54105
0.546906
0.551005
0.552176
0.549807
0.544638
0.537271
0.528133
0.517273
0.504891
0.491254
0.477494
0.463556
0.451338
0.447227
0.457381
0.48584
0.524813
0.556404
0.567601
0.565489
0.559436
0.552021
0.544504
0.53807
0.533547
0.531216
0.530813
0.534083
0.53119
0.538563
0.546112
0.552211
0.555299
0.554512
0.551104
0.545488
0.538012
0.528727
0.517698
0.504858
0.491661
0.477873
0.464964
0.45767
0.462873
0.485542
0.518483
0.547045
0.558177
0.556667
0.551527
0.545145
0.538442
0.532457
0.528141
0.52589
0.525663
0.529343
0.52879
0.53779
0.547457
0.556001
0.561151
0.562268
0.560856
0.557243
0.552125
0.544845
0.535404
0.523575
0.510687
0.49714
0.48362
0.472988
0.472947
0.488694
0.515727
0.540238
0.550838
0.549986
0.545852
0.540734
0.535105
0.529682
0.525608
0.523474
0.523532
0.526981
0.528973
0.54042
0.552725
0.563625
0.570985
0.574536
0.575664
0.574914
0.572451
0.567757
0.560565
0.550543
0.537875
0.525009
0.511168
0.497264
0.491175
0.499456
0.519424
0.539424
0.548058
0.54749
0.543955
0.539733
0.534977
0.530547
0.527062
0.525043
0.525328
0.528251
0.534669
0.548574
0.563611
0.577128
0.58717
0.593887
0.598651
0.601942
0.603398
0.602588
0.599121
0.592337
0.581511
0.570089
0.556605
0.539687
0.526057
0.525659
0.537041
0.550389
0.556044
0.553914
0.549828
0.545923
0.541808
0.53797
0.534783
0.53271
0.532735
0.535116
0.548815
0.565838
0.584202
0.601044
0.614989
0.626561
0.637099
0.646799
0.654933
0.661138
0.664725
0.664599
0.659894
0.651161
0.63968
0.620111
0.597212
0.584646
0.584789
0.589074
0.588729
0.581464
0.574015
0.568025
0.562643
0.557944
0.553988
0.550964
0.549774
0.551221
0.581893
0.602957
0.625983
0.648199
0.669083
0.689361
0.710064
0.73098
0.750844
0.76944
0.785807
0.798182
0.804748
0.802253
0.792886
0.769833
0.735508
0.707472
0.691936
0.683826
0.673363
0.657554
0.642671
0.629876
0.618513
0.608636
0.600279
0.593189
0.588237
0.586957
0.662646
0.690254
0.72156
0.753629
0.787245
0.822691
0.859485
0.897553
0.934064
0.968719
0.999976
1.02499
1.04042
1.03974
1.02392
0.99109
0.945809
0.905141
0.875307
0.855859
0.838467
0.819034
0.79865
0.778265
0.756952
0.735761
0.715851
0.697451
0.681916
0.671773
0.865984
0.902662
0.943972
0.986766
1.03269
1.08078
1.12876
1.17464
1.21591
1.2458
1.26676
1.27727
1.27275
1.2494
1.20932
1.15841
1.10861
1.06765
1.03691
1.01916
1.01155
1.01176
1.00962
1.00575
0.996644
0.981637
0.96046
0.933454
0.904135
0.879431
1.15774
1.20394
1.2444
1.27644
1.30479
1.32796
1.34547
1.3564
1.36034
1.34932
1.32832
1.29957
1.26292
1.21952
1.16409
1.11138
1.0692
1.03812
1.01548
1.00409
1.00423
1.01687
1.03776
1.06386
1.0907
1.11592
1.13655
1.1501
1.15443
1.15857
0.214742
0.227995
0.229081
0.224107
0.214598
0.201905
0.186877
0.17031
0.153002
0.136014
0.120488
0.10768
0.102006
0.111076
0.136822
0.18428
0.233256
0.290498
0.320106
0.330544
0.32527
0.310689
0.290212
0.266991
0.243348
0.220534
0.200002
0.17975
0.163967
0.149329
0.366337
0.377349
0.364862
0.345665
0.324135
0.301822
0.279497
0.257583
0.236396
0.216662
0.197641
0.182274
0.185856
0.21961
0.274724
0.362284
0.451183
0.544635
0.592799
0.60718
0.595026
0.567611
0.530649
0.489171
0.446597
0.404826
0.365959
0.325962
0.290714
0.26339
0.468129
0.471454
0.455777
0.435367
0.412974
0.389223
0.364732
0.34005
0.315901
0.293509
0.272317
0.255706
0.261522
0.304403
0.371745
0.475443
0.580607
0.684706
0.742564
0.763326
0.753984
0.725267
0.684566
0.637207
0.587325
0.537275
0.490084
0.441283
0.39832
0.367823
0.541016
0.535337
0.517782
0.498015
0.476847
0.453987
0.429643
0.404381
0.379347
0.356133
0.334588
0.318306
0.325358
0.37221
0.443975
0.552234
0.663447
0.769584
0.832439
0.858075
0.853138
0.826567
0.786628
0.738529
0.68658
0.633508
0.582799
0.530287
0.483651
0.452178
0.593732
0.581561
0.563003
0.544381
0.524974
0.503733
0.480493
0.455842
0.431229
0.408371
0.387532
0.372347
0.380182
0.427965
0.499428
0.605895
0.716869
0.821873
0.886967
0.915981
0.915452
0.892483
0.855577
0.809557
0.75848
0.70532
0.653762
0.600303
0.551699
0.520128
0.63282
0.616244
0.597335
0.580002
0.562373
0.542895
0.521149
0.497746
0.474304
0.452531
0.432884
0.419146
0.427501
0.47409
0.542192
0.643025
0.750031
0.851511
0.917737
0.948848
0.951832
0.932921
0.900214
0.857964
0.809567
0.758148
0.707309
0.654634
0.604999
0.573933
0.66208
0.642738
0.624013
0.608016
0.592024
0.574245
0.554118
0.532262
0.51037
0.490044
0.471797
0.459607
0.468205
0.512025
0.574748
0.667705
0.7685
0.864855
0.931334
0.964
0.96915
0.954083
0.92604
0.888639
0.844154
0.795717
0.746711
0.695905
0.646174
0.615755
0.683637
0.663029
0.644974
0.630322
0.6158
0.599587
0.581061
0.560841
0.540621
0.521854
0.505064
0.494384
0.502937
0.542761
0.598913
0.682774
0.776088
0.868436
0.934133
0.966731
0.972503
0.96045
0.937007
0.905218
0.865517
0.821101
0.774833
0.726597
0.67771
0.647868
0.69885
0.678372
0.661436
0.648121
0.634927
0.620139
0.603118
0.584491
0.565899
0.54865
0.533293
0.524006
0.532201
0.567217
0.616423
0.690293
0.777278
0.863351
0.92694
0.960232
0.966005
0.956011
0.934504
0.90602
0.873
0.835271
0.793371
0.748572
0.701764
0.672302
0.709834
0.689682
0.674219
0.662229
0.650249
0.636747
0.621097
0.603945
0.586854
0.571009
0.557014
0.548931
0.556404
0.58632
0.628657
0.69241
0.771623
0.852125
0.914253
0.947536
0.953005
0.944482
0.925825
0.900054
0.869967
0.836821
0.801463
0.762137
0.719693
0.690762
0.717391
0.697717
0.683899
0.673227
0.662377
0.650031
0.635607
0.619781
0.60403
0.589457
0.576736
0.569625
0.576098
0.60105
0.636904
0.692634
0.763745
0.838451
0.898591
0.931106
0.935973
0.928271
0.911883
0.889319
0.862109
0.832374
0.800782
0.768381
0.731815
0.704579
0.721959
0.703113
0.690869
0.681543
0.671769
0.660469
0.647142
0.6325
0.617944
0.604519
0.592994
0.58665
0.592009
0.612554
0.642992
0.690872
0.754524
0.823376
0.881161
0.913092
0.917086
0.909423
0.894586
0.87464
0.850765
0.824147
0.796246
0.768118
0.738353
0.713904
0.723947
0.706352
0.695415
0.687507
0.678794
0.66847
0.656153
0.6426
0.629139
0.616786
0.606392
0.600685
0.605095
0.622253
0.647543
0.688167
0.744612
0.807684
0.862791
0.893979
0.897249
0.889726
0.875647
0.857519
0.836476
0.813306
0.788771
0.764623
0.739758
0.719174
0.724
0.707782
0.698148
0.691405
0.683791
0.67443
0.663112
0.650626
0.638239
0.626951
0.617665
0.612597
0.616644
0.63052
0.651093
0.685008
0.73449
0.791927
0.844114
0.874528
0.877289
0.869792
0.856244
0.83936
0.82043
0.80026
0.779128
0.758495
0.737531
0.72046
0.7219
0.707804
0.699429
0.693743
0.687118
0.678807
0.668576
0.657234
0.645995
0.635861
0.627735
0.623493
0.627048
0.63787
0.654111
0.681797
0.724542
0.776478
0.825579
0.855256
0.857772
0.85033
0.837212
0.821229
0.803812
0.785908
0.767857
0.750347
0.732867
0.71877
0.717893
0.706221
0.699614
0.695047
0.689504
0.68223
0.673265
0.663246
0.653323
0.644557
0.637781
0.634136
0.636828
0.644789
0.657026
0.678838
0.715085
0.761582
0.807466
0.836468
0.839056
0.831824
0.819185
0.803889
0.787582
0.771377
0.755559
0.740814
0.726397
0.715068
0.712288
0.703418
0.698933
0.695831
0.691506
0.685525
0.678102
0.669695
0.661223
0.653692
0.647957
0.644775
0.64655
0.651743
0.660246
0.676415
0.706383
0.747422
0.789951
0.818292
0.821329
0.81456
0.802558
0.787924
0.77246
0.757444
0.743265
0.730553
0.718712
0.709867
0.706107
0.700239
0.698203
0.69677
0.693978
0.68951
0.683594
0.67674
0.669812
0.6636
0.658872
0.656025
0.656785
0.659259
0.664214
0.674883
0.698705
0.734179
0.773154
0.800741
0.804665
0.798667
0.787553
0.773726
0.75902
0.744841
0.731782
0.72047
0.710562
0.703589
0.700116
0.697393
0.697716
0.698146
0.697084
0.694312
0.690132
0.685037
0.679801
0.674998
0.671227
0.668563
0.668191
0.668011
0.669471
0.674716
0.692418
0.722107
0.75724
0.78381
0.789092
0.78421
0.77432
0.761568
0.747712
0.734201
0.721861
0.711408
0.702849
0.697503
0.695083
0.69544
0.697939
0.700713
0.7016
0.70072
0.698486
0.695346
0.69197
0.688683
0.685823
0.683177
0.681549
0.678872
0.676815
0.676613
0.688102
0.711705
0.742583
0.767655
0.774545
0.771141
0.762895
0.751607
0.738872
0.726061
0.714191
0.704196
0.696454
0.692198
0.691884
0.694715
0.699977
0.705131
0.708324
0.709632
0.709535
0.70857
0.707266
0.705628
0.70369
0.700962
0.697997
0.692908
0.687488
0.681688
0.686725
0.703831
0.729905
0.752795
0.761244
0.759565
0.753264
0.74385
0.73255
0.720726
0.709375
0.699666
0.692185
0.688599
0.690854
0.696434
0.704623
0.712335
0.71812
0.721947
0.724387
0.725889
0.726975
0.727208
0.72632
0.723556
0.719275
0.711933
0.703349
0.691822
0.690043
0.700121
0.720643
0.740459
0.749993
0.750118
0.745932
0.738512
0.728741
0.71779
0.706967
0.6976
0.69046
0.687391
0.693119
0.701779
0.712976
0.723502
0.732259
0.739036
0.744467
0.748968
0.752961
0.755613
0.756143
0.753644
0.74832
0.739072
0.727711
0.710562
0.701065
0.703601
0.717672
0.733356
0.742688
0.744524
0.742319
0.736358
0.727576
0.717562
0.707809
0.69921
0.692598
0.689821
0.699953
0.712029
0.726639
0.74043
0.752717
0.763114
0.772309
0.780711
0.788491
0.794447
0.797443
0.796031
0.790483
0.780106
0.766706
0.744218
0.726133
0.719905
0.726629
0.736851
0.744125
0.746403
0.745336
0.740638
0.733102
0.724195
0.715119
0.706751
0.70009
0.697504
0.713901
0.729979
0.748572
0.766443
0.783203
0.798383
0.812744
0.826647
0.839839
0.850749
0.858063
0.859672
0.855696
0.845711
0.831567
0.80433
0.776978
0.760074
0.757798
0.760856
0.763782
0.76397
0.761858
0.75708
0.749648
0.740828
0.731724
0.723041
0.715854
0.713011
0.740841
0.761659
0.785366
0.808712
0.831663
0.853778
0.875819
0.897987
0.91932
0.937905
0.952326
0.960208
0.960643
0.95317
0.939439
0.907639
0.870309
0.841171
0.826491
0.8202
0.817059
0.812327
0.806301
0.798685
0.788985
0.777834
0.766536
0.755746
0.746488
0.742209
0.79564
0.822441
0.853058
0.884132
0.916184
0.948662
0.982094
1.01617
1.04889
1.07784
1.10171
1.11788
1.12443
1.11853
1.10141
1.05738
1.00565
0.962143
0.934701
0.919305
0.911864
0.907084
0.900448
0.889135
0.874788
0.8582
0.840903
0.824141
0.809043
0.800291
0.915481
0.949172
0.988301
1.02904
1.07254
1.11764
1.16405
1.21022
1.25313
1.28921
1.31732
1.33478
1.33615
1.31544
1.27467
1.20835
1.14311
1.08919
1.05278
1.03287
1.02722
1.03079
1.0362
1.03897
1.03223
1.01602
0.994651
0.969873
0.944081
0.925274
1.15601
1.19447
1.23761
1.28205
1.3288
1.37665
1.42372
1.46698
1.50331
1.52632
1.53209
1.52171
1.48854
1.43325
1.3625
1.27591
1.20224
1.14531
1.10709
1.08896
1.08973
1.10767
1.13412
1.1635
1.18981
1.20913
1.2175
1.21091
1.19165
1.17003
1.36829
1.42199
1.46863
1.50374
1.53173
1.55733
1.57725
1.59012
1.59139
1.57526
1.54068
1.49159
1.42832
1.35269
1.26635
1.1758
1.1054
1.05432
1.02005
1.00493
1.00831
1.03092
1.06728
1.11262
1.16198
1.21248
1.25996
1.30281
1.33677
1.36586
0.260768
0.275836
0.273963
0.267404
0.256194
0.241485
0.224174
0.205062
0.184877
0.164516
0.144839
0.128567
0.136219
0.176185
0.227225
0.292157
0.353912
0.420828
0.451551
0.456217
0.442869
0.420137
0.391637
0.360839
0.329673
0.299219
0.27068
0.241424
0.215349
0.18849
0.436853
0.447831
0.434928
0.414642
0.391668
0.367802
0.343606
0.319243
0.294638
0.270025
0.243329
0.222957
0.254442
0.340941
0.438384
0.556646
0.667071
0.777829
0.826198
0.829429
0.800504
0.756774
0.704036
0.647384
0.590233
0.534078
0.480627
0.424168
0.371804
0.323659
0.552968
0.5544
0.536938
0.515921
0.493287
0.46932
0.444042
0.417561
0.390293
0.363043
0.334544
0.314511
0.354704
0.456785
0.571143
0.7059
0.832137
0.951242
1.00842
1.01741
0.989694
0.943214
0.88574
0.82206
0.756307
0.690368
0.626865
0.559492
0.497402
0.443653
0.633114
0.624295
0.604373
0.584354
0.563854
0.54182
0.517657
0.491419
0.464099
0.437044
0.409982
0.393181
0.438139
0.544278
0.662851
0.80013
0.930285
1.04754
1.10903
1.12305
1.09978
1.05551
0.999064
0.934753
0.86681
0.797388
0.729812
0.658287
0.591846
0.536154
0.690822
0.673762
0.652785
0.634288
0.616149
0.596411
0.574098
0.549301
0.523442
0.49824
0.474217
0.461957
0.50977
0.614303
0.729853
0.862637
0.988911
1.10144
1.16455
1.1821
1.1639
1.1239
1.07121
1.0095
0.942803
0.873364
0.804894
0.7326
0.663817
0.60896
0.732516
0.710261
0.689281
0.672497
0.656543
0.639029
0.618821
0.596076
0.572501
0.550049
0.529802
0.522667
0.572219
0.671495
0.780183
0.903615
1.02197
1.12738
1.19118
1.21059
1.19691
1.16205
1.11459
1.05735
0.994056
0.926824
0.859322
0.788318
0.718421
0.665911
0.762396
0.737977
0.717789
0.702707
0.688649
0.673172
0.655109
0.634699
0.613805
0.594504
0.578281
0.576488
0.626778
0.718598
0.818055
0.929491
1.03766
1.1347
1.19789
1.2182
1.20757
1.1781
1.13674
1.08506
1.02671
0.963292
0.898153
0.829762
0.759897
0.709199
0.784223
0.759569
0.740657
0.727156
0.714702
0.701037
0.68504
0.66703
0.648941
0.632897
0.620655
0.624254
0.674267
0.757393
0.846294
0.944538
1.04202
1.13044
1.19102
1.21148
1.20286
1.17549
1.13687
1.09228
1.04208
0.985038
0.923695
0.858744
0.791805
0.74253
0.800139
0.776618
0.759277
0.7472
0.736114
0.724059
0.709983
0.694308
0.678975
0.666132
0.657773
0.666488
0.715274
0.789151
0.866954
0.951778
1.03823
1.11702
1.17531
1.19525
1.18829
1.16452
1.129
1.08706
1.04059
0.990593
0.936131
0.876959
0.815065
0.76843
0.812441
0.790223
0.774502
0.763702
0.753815
0.743195
0.730881
0.717407
0.704694
0.694892
0.69032
0.7036
0.750314
0.814876
0.88163
0.953467
1.02888
1.09893
1.15412
1.17322
1.1674
1.14662
1.11494
1.07624
1.03332
0.98742
0.938976
0.887252
0.832034
0.788956
0.82169
0.800871
0.786858
0.777242
0.768446
0.759116
0.748413
0.736987
0.726723
0.71976
0.718866
0.735987
0.779902
0.835457
0.891646
0.951676
1.01632
1.07801
1.13001
1.14824
1.14292
1.12443
1.09614
1.06135
1.022
0.980257
0.936446
0.891987
0.843805
0.804848
0.828415
0.808904
0.796691
0.788221
0.78046
0.772319
0.763114
0.753605
0.745627
0.741231
0.743995
0.764065
0.804621
0.851781
0.898485
0.947246
1.00155
1.05525
1.10363
1.12138
1.117
1.10013
1.07462
1.04332
1.00797
0.970255
0.931109
0.892204
0.851504
0.816912
0.832846
0.814724
0.804262
0.796938
0.790213
0.783216
0.775456
0.767785
0.761964
0.759942
0.766166
0.788326
0.825169
0.864825
0.902722
0.940883
0.985396
1.03146
1.07597
1.09358
1.09015
1.07524
1.05207
1.02362
0.991968
0.95822
0.923597
0.889682
0.855622
0.825612
0.835176
0.818576
0.809798
0.803663
0.798031
0.79221
0.785922
0.780081
0.776314
0.776611
0.785901
0.809319
0.842507
0.875267
0.904878
0.93317
0.96847
1.00729
1.04777
1.06548
1.06312
1.05012
1.02928
1.00349
0.974892
0.944939
0.914367
0.884906
0.855864
0.831056
0.835738
0.820785
0.813516
0.808708
0.804297
0.799774
0.795066
0.791106
0.789351
0.792036
0.803852
0.827824
0.857309
0.883589
0.905389
0.924606
0.951267
0.98322
1.01955
1.03756
1.03646
1.02543
1.0069
0.983587
0.957686
0.930872
0.903898
0.878266
0.853466
0.833123
0.834641
0.821619
0.815901
0.812518
0.809531
0.806516
0.803552
0.801563
0.802004
0.807047
0.820859
0.844397
0.870148
0.890331
0.904949
0.915668
0.934217
0.959593
0.99173
1.01008
1.01056
1.0016
0.985413
0.964461
0.940971
0.916779
0.892756
0.870277
0.849046
0.832098
0.831815
0.821485
0.81748
0.815685
0.814408
0.81321
0.812181
0.81218
0.814812
0.822005
0.837207
0.859636
0.881661
0.896105
0.904088
0.906854
0.917741
0.936685
0.964604
0.98314
0.985664
0.978873
0.965161
0.946573
0.925307
0.903321
0.881706
0.861611
0.843248
0.829364
0.828029
0.820714
0.818887
0.818969
0.819618
0.820261
0.821286
0.823506
0.828385
0.837521
0.853541
0.874297
0.89262
0.90161
0.903495
0.898759
0.902335
0.91478
0.938474
0.957024
0.961814
0.957396
0.946359
0.930267
0.911188
0.891134
0.871336
0.853104
0.836926
0.825486
0.824007
0.819934
0.820456
0.822813
0.825615
0.828396
0.831704
0.836273
0.843416
0.854286
0.870631
0.889313
0.903946
0.907698
0.904068
0.892112
0.888573
0.894389
0.913844
0.931921
0.939074
0.937298
0.929165
0.915793
0.899043
0.880796
0.862416
0.845479
0.83095
0.821409
0.820821
0.819791
0.823129
0.827973
0.833196
0.838422
0.844234
0.851269
0.86069
0.873136
0.889453
0.905866
0.916695
0.915595
0.907029
0.887927
0.877226
0.876363
0.891226
0.908178
0.917613
0.918595
0.913579
0.903246
0.889148
0.872664
0.855415
0.839424
0.826092
0.817859
0.819207
0.821283
0.827709
0.835326