/*--------------------------------*- C++ -*----------------------------------*\
| =========                 |                                                 |
| \\      /  F ield         | OpenFOAM: The Open Source CFD Toolbox           |
|  \\    /   O peration     | Version:  5.0                                   |
|   \\  /    A nd           | Web:      www.OpenFOAM.org                      |
|    \\/     M anipulation  |                                                 |
\*---------------------------------------------------------------------------*/
FoamFile
{
    version     2.0;
    format      ascii;
    class       volScalarField;
    location    "450/air";
    object      nut;
}
// * * * * * * * * * * * * * * * * * * * * * * * * * * * * * * * * * * * * * //

dimensions      [0 2 -1 0 0 0 0];

internalField   nonuniform List<scalar> 
243000
(
0.000173893
0.000171424
0.0001652
0.000157827
0.000149801
0.000141549
0.000133307
0.000125242
0.000117488
0.000110252
0.000103807
9.84924e-05
9.38854e-05
8.96922e-05
8.53813e-05
8.08511e-05
7.71337e-05
8.79082e-05
0.000108025
0.000122127
0.000126792
0.000126161
0.000121959
0.000116369
0.00011362
0.000113514
0.00011578
0.00011992
0.000127282
0.000138738
0.000807321
0.000814777
0.000803833
0.000785872
0.000764787
0.00074184
0.000717575
0.000692335
0.00066655
0.0006412
0.0006175
0.000597143
0.000578289
0.00056077
0.000540306
0.000517265
0.000504949
0.000595452
0.000731941
0.000809442
0.00082442
0.000806857
0.000768795
0.000721775
0.000682321
0.000657754
0.00064614
0.000640881
0.000647762
0.000667095
0.000894081
0.000899211
0.000885971
0.000865789
0.00084221
0.000816621
0.000789685
0.000761892
0.000733836
0.000706723
0.000682017
0.000661206
0.000641308
0.000622258
0.000599359
0.000573397
0.000563173
0.000670526
0.000824536
0.000908792
0.000927346
0.000911851
0.000875457
0.000829782
0.000786606
0.000757592
0.000743057
0.000735868
0.000741388
0.000759118
0.000949853
0.00095439
0.000941088
0.000921067
0.000897405
0.000871376
0.000843655
0.000814866
0.000785788
0.000757902
0.000732935
0.00071214
0.000691545
0.000670897
0.000645247
0.000615546
0.000604729
0.000721053
0.000886319
0.000974661
0.000996389
0.000983674
0.000950217
0.00090732
0.000864796
0.00083261
0.000815735
0.000807259
0.00081192
0.000829023
0.000988781
0.000992768
0.000980149
0.00096114
0.000938377
0.000912915
0.000885367
0.000856457
0.000827139
0.000799137
0.000774289
0.000753605
0.000732415
0.000710145
0.000681564
0.000647649
0.000634921
0.000754894
0.000927424
0.00101885
0.00104353
0.00103393
0.00100386
0.000964343
0.000923773
0.000891225
0.000872326
0.000863038
0.000866918
0.00088483
0.00101707
0.00102046
0.00100876
0.000991071
0.000969587
0.000945139
0.000918251
0.000889714
0.000860643
0.000832918
0.000808359
0.000787743
0.000765957
0.000742036
0.000710349
0.000672036
0.000659803
0.000776479
0.000952869
0.00104761
0.00107497
0.00106857
0.001042
0.0010061
0.000968184
0.000936702
0.000917025
0.00090743
0.000910612
0.000929339
0.00103796
0.00104079
0.0010301
0.00101382
0.000993737
0.000970477
0.000944484
0.0009166
0.00088806
0.000860822
0.000836608
0.000815957
0.000793504
0.000767877
0.000732979
0.000690703
0.000680833
0.000789252
0.000966397
0.00106432
0.00109448
0.00109122
0.00106814
0.00103592
0.00100107
0.000971389
0.000952119
0.000942811
0.000945647
0.000964674
0.00105332
0.00105571
0.00104608
0.00103123
0.00101256
0.000990525
0.000965525
0.000938433
0.000910577
0.000883922
0.000860036
0.000839214
0.000816015
0.000788586
0.000750479
0.000706895
0.000698774
0.000799032
0.00097193
0.00107161
0.0011047
0.00110431
0.00108468
0.00105615
0.00102458
0.000997206
0.000979068
0.000970702
0.000973451
0.00099255
0.00106426
0.00106641
0.0010579
0.00104448
0.00102719
0.00100637
0.000982378
0.000956137
0.000929027
0.000902977
0.000879356
0.000858233
0.000834216
0.000804861
0.00076371
0.000721196
0.000714324
0.000808437
0.000972065
0.00107275
0.00110756
0.00110957
0.00109355
0.00106869
0.00104037
0.0010156
0.000999132
0.000992168
0.000995127
0.00101424
0.00107165
0.00107366
0.00106634
0.00105433
0.00103839
0.00101874
0.00099575
0.000970367
0.00094401
0.000918532
0.000895095
0.000873564
0.000848625
0.00081729
0.000773554
0.000733445
0.000727881
0.000816466
0.000966746
0.0010676
0.00110427
0.00110825
0.00109506
0.00107414
0.00104972
0.00102769
0.0010133
0.0010081
0.00101158
0.00103073
0.00107598
0.00107803
0.00107188
0.00106126
0.00104662
0.00102812
0.00100612
0.000981579
0.000955953
0.000930997
0.000907657
0.000885645
0.000859649
0.000826386
0.000781196
0.000744001
0.000739683
0.000822985
0.000961553
0.00105716
0.00109587
0.00110176
0.0010913
0.00107322
0.00105262
0.00103421
0.00102211
0.0010191
0.00102352
0.00104275
0.00107762
0.00107992
0.00107493
0.00106568
0.00105229
0.00103484
0.00101373
0.000990031
0.00096515
0.000940678
0.000917378
0.000894771
0.000867663
0.000832635
0.000788512
0.000753385
0.000749985
0.00082809
0.000956224
0.00104511
0.00108364
0.00109113
0.00108313
0.001068
0.00105042
0.0010353
0.00102632
0.00102563
0.0010312
0.00105088
0.00107682
0.00107965
0.00107588
0.0010679
0.00105569
0.00103924
0.00101899
0.000996037
0.000971778
0.00094779
0.00092449
0.000901219
0.000872972
0.000836557
0.000794952
0.000761762
0.000758962
0.000831911
0.000950714
0.00103416
0.00107111
0.00107819
0.00107167
0.00105909
0.0010445
0.00103236
0.00102627
0.00102806
0.00103504
0.00105559
0.00107385
0.00107733
0.00107492
0.00106823
0.00105706
0.00104153
0.00102209
0.000999866
0.000976195
0.00095253
0.000929136
0.000905146
0.000875896
0.000838939
0.000800513
0.000769257
0.000766765
0.000834568
0.000944897
0.00102381
0.00105939
0.00106632
0.00106058
0.00104887
0.00103547
0.00102606
0.00102271
0.00102711
0.00103574
0.00105723
0.00106874
0.00107303
0.00107201
0.00106666
0.00105661
0.00104196
0.00102326
0.0010017
0.000978609
0.000955258
0.000931732
0.00090709
0.00087709
0.000841577
0.000805555
0.000776034
0.000773548
0.000836225
0.000938669
0.00101368
0.00104811
0.00105508
0.00105
0.00103921
0.00102702
0.00101793
0.00101609
0.00102282
0.0010334
0.00105609
0.00106141
0.00106676
0.00106721
0.00106314
0.0010542
0.00104045
0.0010226
0.00100182
0.000979279
0.000956221
0.000932612
0.000907449
0.00087727
0.000844138
0.000810231
0.000782223
0.000779454
0.000837004
0.00093195
0.0010035
0.001037
0.00104413
0.00103965
0.00102981
0.00101879
0.00101027
0.00100821
0.00101568
0.00102809
0.00105215
0.00105195
0.00105856
0.00106048
0.00105774
0.00104979
0.00103699
0.00101998
0.00100003
0.000978184
0.000955523
0.000931911
0.000906275
0.000877861
0.000846727
0.000814666
0.000787937
0.000784603
0.00083682
0.000924723
0.0009931
0.00102588
0.00103323
0.00102934
0.00102045
0.00101057
0.00100279
0.00100078
0.00100702
0.00102015
0.00104549
0.00104055
0.0010485
0.00105189
0.00105047
0.00104351
0.00103154
0.00101548
0.000996433
0.000975345
0.000953155
0.000930246
0.000905708
0.000878832
0.000849408
0.000818961
0.000793283
0.000789094
0.000835841
0.000916972
0.000982368
0.00101458
0.0010222
0.00101892
0.001011
0.0010022
0.00099532
0.000993554
0.000998958
0.00101081
0.00103618
0.00102927
0.00103778
0.00104215
0.00104164
0.00103562
0.00102466
0.0010098
0.000992047
0.000972234
0.000951188
0.000929161
0.000905722
0.000880157
0.000852233
0.000823206
0.000798354
0.000793096
0.000834205
0.000908658
0.000971208
0.00100299
0.00101095
0.00100829
0.00100134
0.000993612
0.000987725
0.000986324
0.000991205
0.00100212
0.00102471
0.0010187
0.00102769
0.00103288
0.00103323
0.00102808
0.00101808
0.00100436
0.0009879
0.000969382
0.000949523
0.000928495
0.000906132
0.000881801
0.000855236
0.000827481
0.000803271
0.000796715
0.000832088
0.00089984
0.000959569
0.000990994
0.000999385
0.000997391
0.000991422
0.000984795
0.000979924
0.000978969
0.000983552
0.000993726
0.00101364
0.00100854
0.00101795
0.00102388
0.00102499
0.00102069
0.00101164
0.000999048
0.000983872
0.000966679
0.000948059
0.000928141
0.000906883
0.000883746
0.000858456
0.000831862
0.000808152
0.000800079
0.000829666
0.000890735
0.000947454
0.000978527
0.000987418
0.000986157
0.00098122
0.000975747
0.000971883
0.000971423
0.000975868
0.000985464
0.00100321
0.000998549
0.00100836
0.00101492
0.00101677
0.00101332
0.00100521
0.000993754
0.000979876
0.000964045
0.000946736
0.000928067
0.000907946
0.000885971
0.000861927
0.000836429
0.0008131
0.000803383
0.000827188
0.00088146
0.000934908
0.000965553
0.000974986
0.000974507
0.000970665
0.000966399
0.000963533
0.000963598
0.000968017
0.000977145
0.000993087
0.00098851
0.000998703
0.00100587
0.00100844
0.00100584
0.000998706
0.000988411
0.000975834
0.000961449
0.000945537
0.000928214
0.000909326
0.000888539
0.000865725
0.000841303
0.0008183
0.000806861
0.000824858
0.000872257
0.000922064
0.000952108
0.000962107
0.000962452
0.000959775
0.000956716
0.000954819
0.000955429
0.000959897
0.00096865
0.00098301
0.000978215
0.000988905
0.00099664
0.000999896
0.000998174
0.00099207
0.000982986
0.000971782
0.00095889
0.00094447
0.000928638
0.00091111
0.000891589
0.00087006
0.000846773
0.000824135
0.000810962
0.000823184
0.00086356
0.000909295
0.000938424
0.000948938
0.000950134
0.000948622
0.00094671
0.000945754
0.000946939
0.000951491
0.000959913
0.000972847
0.000967657
0.00097893
0.000987204
0.000991097
0.000990263
0.000985262
0.000977481
0.000967765
0.000956465
0.000943758
0.00092963
0.000913634
0.000895672
0.000875658
0.000853718
0.00083163
0.0008168
0.000823619
0.000856424
0.000897401
0.000925177
0.000935982
0.000937957
0.000937491
0.000936624
0.000936525
0.000938265
0.000942897
0.000950958
0.000962586
0.00095698
0.000968721
0.00097763
0.000982086
0.000982187
0.000978428
0.000972162
0.000964162
0.00095491
0.000944343
0.000932242
0.000918474
0.000902739
0.000884836
0.000864789
0.000843673
0.000827361
0.000828558
0.000853526
0.00088846
0.000914207
0.000924786
0.000927113
0.000927288
0.000927149
0.000927684
0.000929823
0.000934439
0.000941979
0.000952356
0.00094698
0.00095907
0.000968561
0.000973761
0.000974994
0.000972951
0.000968903
0.000963617
0.000957206
0.000949809
0.000941187
0.00093107
0.000919014
0.000904589
0.000887526
0.000868138
0.000850502
0.000846257
0.000862089
0.00088989
0.000911216
0.000920012
0.000921589
0.000921374
0.000921051
0.000921504
0.000923444
0.000927525
0.000934075
0.000942999
0.000942399
0.000955023
0.000965523
0.000972623
0.000976391
0.000977935
0.000978274
0.000978
0.000977086
0.000975636
0.00097336
0.000969716
0.00096387
0.000954876
0.000942289
0.000925576
0.000907225
0.000897058
0.000902588
0.000919473
0.000933665
0.000938096
0.000936277
0.000933253
0.000930419
0.000928529
0.000928206
0.000929841
0.000933712
0.000939658
0.000984703
0.000998383
0.00101148
0.00102342
0.00103408
0.00104366
0.0010526
0.00106097
0.00106854
0.00107607
0.00108275
0.0010875
0.00108877
0.00108567
0.00107742
0.00106377
0.00104626
0.0010321
0.0010276
0.00103161
0.00103567
0.00103303
0.00102585
0.00101787
0.0010098
0.00100218
0.00099553
0.000990095
0.000986467
0.000985395
0.00128451
0.0012939
0.00130388
0.00131398
0.00132564
0.00133518
0.00134265
0.00134813
0.001352
0.00135877
0.00136459
0.00136781
0.00136695
0.00136224
0.00135311
0.00134145
0.0013285
0.00131901
0.00131405
0.00131403
0.00131584
0.0013167
0.00131643
0.00131559
0.00131361
0.00131039
0.00130606
0.0013005
0.00129428
0.00128808
0.000213485
0.000213999
0.000207327
0.000197988
0.000187243
0.000175864
0.000164241
0.000152637
0.000141289
0.000130587
0.00012103
0.000113122
0.000106348
0.000101559
9.89822e-05
0.000106367
0.000126645
0.00015257
0.0001673
0.000176194
0.000179932
0.000180268
0.000178249
0.000175016
0.000171725
0.000168844
0.000167228
0.000165663
0.000167896
0.000171888
0.00096531
0.000995224
0.000905392
0.000798369
0.000705244
0.000628898
0.000567596
0.000519259
0.000482005
0.000455324
0.000432708
0.000415338
0.000408451
0.000423988
0.000446779
0.0005131
0.000636588
0.000765419
0.000844313
0.000883807
0.000889135
0.00087277
0.00084319
0.000808993
0.000779552
0.000756793
0.000736082
0.00070391
0.000661345
0.000643223
0.00161847
0.00172728
0.00164328
0.00149814
0.00134832
0.00121406
0.00110097
0.00100982
0.000939591
0.000889379
0.000845102
0.000808478
0.000785699
0.00079866
0.000826055
0.000935593
0.00115596
0.00138515
0.00154255
0.00162705
0.00164737
0.00162026
0.00156476
0.00149898
0.00144311
0.0013933
0.00134952
0.00129177
0.00121801
0.00119528
0.00215584
0.0023131
0.00226352
0.0021223
0.00194988
0.00178012
0.00162837
0.00150272
0.00140308
0.00132427
0.00125821
0.00120026
0.00115643
0.0011558
0.00118057
0.00131918
0.00160809
0.0019199
0.00214208
0.00226875
0.00231053
0.00228371
0.00221631
0.00213318
0.00204911
0.00197699
0.00191561
0.00184422
0.00175355
0.00173321
0.00260713
0.00278698
0.00278249
0.00266238
0.00248755
0.0022994
0.00212151
0.0019692
0.00184223
0.00174221
0.00165344
0.00157373
0.00150801
0.00148839
0.00150552
0.00166086
0.00199807
0.00237208
0.00264424
0.00280716
0.00287184
0.00285365
0.00278321
0.00269588
0.0026006
0.00250823
0.00243096
0.00234896
0.00225265
0.00223611
0.00299485
0.00318927
0.0032228
0.00313068
0.00296394
0.00276845
0.00257403
0.00240079
0.00225347
0.0021337
0.00202406
0.00192326
0.0018366
0.00179518
0.00180005
0.00195965
0.00232116
0.00274433
0.00305946
0.0032518
0.00333764
0.00333356
0.00326797
0.00318366
0.0030883
0.00299413
0.00290527
0.00281067
0.00270616
0.00269936
0.00333875
0.00354007
0.00360271
0.00353929
0.0033854
0.00318935
0.00298515
0.00279642
0.00263291
0.00249629
0.00236746
0.00224666
0.00214012
0.00207643
0.00206418
0.00221858
0.00258145
0.00304064
0.00339266
0.00361338
0.00371662
0.00372919
0.00367444
0.00359792
0.00351146
0.00342153
0.0033353
0.00324192
0.0031303
0.00313104
0.00364638
0.00384982
0.00393493
0.0038971
0.00375754
0.00356489
0.00335573
0.00315593
0.00297815
0.00282843
0.00268249
0.00254292
0.00241766
0.00233165
0.00229884
0.0024374
0.00278603
0.00328093
0.00365724
0.00389932
0.00401879
0.00404643
0.00400708
0.00394654
0.00387048
0.00379369
0.00371439
0.00362847
0.00351822
0.00352356
0.00391835
0.00412342
0.00422645
0.00421008
0.00408451
0.00389753
0.00368681
0.00348019
0.0032904
0.00312826
0.00296843
0.00281196
0.00266945
0.00256155
0.00250708
0.00262567
0.00296368
0.00348366
0.00388476
0.00413813
0.00425978
0.00429057
0.00426986
0.00423327
0.00417562
0.00411196
0.00404649
0.00397135
0.00386506
0.00387593
0.00416089
0.00436206
0.00448099
0.00448206
0.00436927
0.00418912
0.00397931
0.00376812
0.00356993
0.00339413
0.00322357
0.00305397
0.0028954
0.00276688
0.00269389
0.00279498
0.00312246
0.00361736
0.00403757
0.0043039
0.00443844
0.00447307
0.00446215
0.00443014
0.00440233
0.00437767
0.00433393
0.00427492
0.00417513
0.00419035
0.00438229
0.00457244
0.00470007
0.00471536
0.00461386
0.00444107
0.00423399
0.00402061
0.00381717
0.00362997
0.00344763
0.00326753
0.00309608
0.00294991
0.00286589
0.00294542
0.00325294
0.00371689
0.00413851
0.00442237
0.00456469
0.00460499
0.00460692
0.00459001
0.00456947
0.00455791
0.00455274
0.00452939
0.00445363
0.00447102
0.00458035
0.00475789
0.00488565
0.00491117
0.00481947
0.00465425
0.00445151
0.00423833
0.00403134
0.00383741
0.00364676
0.00345715
0.00327357
0.00311467
0.00301869
0.00307675
0.00335755
0.00378767
0.0042016
0.00450201
0.00464812
0.00469336
0.00470688
0.00470675
0.00470411
0.00470447
0.00471405
0.00472276
0.00469725
0.00471767
0.00475769
0.00492026
0.00504296
0.00507011
0.00498607
0.00482862
0.00463211
0.00442191
0.00421412
0.00401597
0.00382021
0.00362294
0.00343076
0.00326832
0.00315361
0.00318931
0.00343605
0.00383071
0.00422871
0.00453425
0.0046922
0.00474571
0.00476747
0.00478296
0.00479891
0.00482024
0.0048452
0.0048727
0.00487917
0.00491849
0.00490675
0.0050616
0.00517539
0.0051988
0.00511888
0.00496791
0.00477689
0.00457204
0.00436745
0.0041682
0.00396943
0.00376769
0.00357255
0.00340664
0.00327106
0.00328351
0.00349156
0.00384761
0.00422245
0.00452414
0.00468906
0.00475186
0.00478959
0.00482102
0.0048557
0.0048985
0.00494603
0.00499321
0.00502401
0.00507609
0.00502401
0.00517123
0.00528186
0.00529939
0.00522166
0.00507766
0.00489425
0.00469526
0.00449472
0.00429744
0.00409855
0.00389659
0.00370559
0.00352362
0.00337079
0.00335955
0.00352716
0.00384044
0.00418549
0.00447742
0.00464413
0.00471673
0.00477092
0.00481926
0.00487246
0.0049379
0.00501108
0.0050817
0.00513784
0.00520134
0.00510298
0.00524524
0.00535216
0.0053725
0.00529779
0.00516127
0.00498784
0.00479792
0.00460365
0.00440907
0.00421336
0.00401686
0.00382122
0.00362043
0.00345269
0.00341728
0.00354381
0.00381179
0.00412193
0.00439889
0.00456294
0.0046452
0.00471576
0.00478159
0.00485338
0.00493943
0.00503748
0.00513461
0.00521347
0.00529133
0.00514868
0.00528952
0.00539236
0.00541367
0.00534743
0.00522293
0.00506214
0.00488465
0.00469924
0.0045101
0.00431706
0.00411961
0.00391106
0.00369738
0.0035165
0.00345529
0.00354253
0.00376519
0.00403664
0.00429328
0.00445089
0.00454182
0.00462834
0.00471175
0.00480157
0.00490615
0.00502566
0.00515044
0.00525216
0.00534262
0.00516411
0.00530776
0.00540782
0.00543103
0.00537528
0.00526813
0.00512197
0.00495388
0.00477484
0.00459229
0.00440011
0.00419511
0.00397621
0.00375456
0.00356192
0.0034755
0.00351437
0.00369709
0.00393277
0.00416542
0.0043129
0.00441048
0.00451217
0.00461252
0.00471962
0.00484094
0.00497791
0.00512407
0.00525482
0.00535956
0.00514695
0.00529978
0.0053977
0.0054295
0.00538723
0.00529036
0.0051541
0.00499382
0.00482243
0.00464324
0.00445105
0.00424205
0.00401727
0.00379087
0.00358794
0.00347693
0.00347971
0.0036036
0.00380218
0.00401708
0.00415547
0.0042615
0.00437592
0.00448984
0.0046104
0.00474436
0.00489568
0.00505818
0.00521124
0.00535232
0.00509156
0.0052363
0.00533593
0.00537898
0.00535098
0.00526615
0.00514243
0.00499602
0.00483475
0.00466108
0.00447029
0.00425974
0.00403226
0.00380346
0.00359212
0.00345845
0.00342908
0.00350294
0.00365906
0.00385115
0.00398528
0.00410643
0.0042321
0.00435746
0.00448915
0.00463213
0.00479083
0.00496023
0.00512462
0.0052958
0.00499293
0.00513078
0.00523856
0.00528744
0.0052723
0.00520077
0.00509352
0.00496254
0.00481198
0.00464408
0.00445482
0.004244
0.00401571
0.00378616
0.00356914
0.00341621
0.00335677
0.00339192
0.0035125
0.00367832
0.00380208
0.00393394
0.00407861
0.00422131
0.0043646
0.00451433
0.00467642
0.00484722
0.00501496
0.00519975
0.00486308
0.00499873
0.00510244
0.00516239
0.00516145
0.00510177
0.00500954
0.00489231
0.00475086
0.00458743
0.00439844
0.00418619
0.00395636
0.00372748
0.00350894
0.00334224
0.00326134
0.00327534
0.00335796
0.0034961
0.00360956
0.00374666
0.00390038
0.00405858
0.00421588
0.00437377
0.00453868
0.0047086
0.00487416
0.00505952
0.00470551
0.00483154
0.00493695
0.00501039
0.00501984
0.00497077
0.00488913
0.0047808
0.00464377
0.00447982
0.00428695
0.00407047
0.0038378
0.00360993
0.00339561
0.0032232
0.00313196
0.00312744
0.00319129
0.00330266
0.00340733
0.00355063
0.00371206
0.00387987
0.00404624
0.00420768
0.00437241
0.00454163
0.00470916
0.00488169
0.00451597
0.00464531
0.00475545
0.00483122
0.00484284
0.00480035
0.00472212
0.00461335
0.00447164
0.00429961
0.00409823
0.00387491
0.00363966
0.00341419
0.00321162
0.00304595
0.00295401
0.00294578
0.00299993
0.00309629
0.00319231
0.00334477
0.00351027
0.00368261
0.00385287
0.0040214
0.00418931
0.00435576
0.00452264
0.00467752
0.00431437
0.00444137
0.00454553
0.00461164
0.00461429
0.00456661
0.0044813
0.00436177
0.00420634
0.00402093
0.00381092
0.00358438
0.00335275
0.00313843
0.00295616
0.00280838
0.00272373
0.00272329
0.00277657
0.0028596
0.00296141
0.0031174
0.00328398
0.00346089
0.00363745
0.00381131
0.00398139
0.00414635
0.00430849
0.00445102
0.00407373
0.00419265
0.00427819
0.00431747
0.00429707
0.00423074
0.00412778
0.00399207
0.00382631
0.00363878
0.0034362
0.00322608
0.00301899
0.002833
0.00268362
0.00256254
0.00248786
0.00248807
0.0025408
0.00261639
0.00271956
0.00286297
0.00301966
0.00319219
0.00336946
0.00354684
0.00372058
0.00388713
0.00404524
0.00418349
0.00375132
0.00384519
0.00389582
0.00389902
0.00385042
0.00376704
0.00365719
0.00352604
0.00337879
0.00322326
0.00306525
0.00290907
0.0027571
0.002618
0.00251144
0.00242053
0.0023533
0.00234128
0.00237635
0.00243638
0.00251732
0.0026243
0.00274472
0.00288595
0.00304025
0.00320324
0.00336975
0.00353312
0.00368622
0.0038237
0.00330815
0.0033693
0.00339297
0.00338141
0.00333516
0.00327309
0.00319893
0.00311709
0.00302844
0.00293776
0.00284849
0.0027597
0.00266885
0.00257517
0.00250168
0.00243346
0.00237676
0.00235515
0.0023679
0.0024029
0.00245219
0.00251519
0.00258265
0.00266476
0.00275923
0.00286647
0.00298555
0.00311068
0.00323108
0.00334223
0.00293115
0.00297669
0.00300281
0.00301088
0.00300055
0.00298469
0.00296183
0.00293175
0.00289384
0.00284361
0.0027928
0.00273879
0.00268172
0.00262672
0.00257242
0.00252268
0.00248281
0.0024639
0.00246579
0.00248436
0.00251006
0.00254096
0.00257745
0.00262179
0.00267164
0.00272798
0.00279098
0.00285567
0.00290642
0.00294924
0.00282208
0.00286016
0.00288329
0.00289292
0.00289105
0.00288316
0.00287072
0.00285131
0.00282862
0.00280198
0.0027744
0.00274168
0.00270373
0.00266561
0.00263097
0.0026044
0.00258615
0.00258328
0.00258949
0.00260251
0.00261788
0.00263826
0.00266047
0.00268519
0.0027098
0.00273473
0.00275769
0.00278074
0.00280432
0.00282106
0.00024521
0.000243312
0.000234993
0.000224184
0.000211886
0.000198847
0.000185474
0.000172085
0.000158949
0.000146477
0.000135142
0.000125594
0.000120468
0.00012419
0.000136571
0.000158592
0.000179357
0.000201989
0.000214829
0.00022206
0.000224836
0.000224975
0.000223257
0.000220436
0.00021714
0.000213703
0.000210744
0.000207157
0.000205417
0.000203741
0.00117664
0.0012614
0.00116839
0.00103735
0.000919593
0.000822817
0.000746731
0.000687822
0.000642096
0.000607737
0.000568751
0.000536677
0.000550747
0.000632574
0.000728865
0.000874737
0.00101999
0.00117259
0.00126554
0.00129952
0.00128905
0.00125743
0.00121127
0.00116016
0.00110757
0.00105414
0.000998088
0.000925721
0.000836968
0.000770472
0.00202861
0.00221343
0.00215166
0.00198811
0.00180448
0.00163537
0.00149323
0.00137853
0.00128782
0.00121997
0.00114499
0.0010799
0.00108656
0.00121513
0.0013753
0.00162938
0.00189465
0.00215721
0.00234267
0.00242808
0.00242699
0.00237462
0.00229158
0.00219464
0.00209225
0.00198288
0.00187276
0.00173931
0.00158103
0.00147064
0.00273389
0.00298804
0.00298152
0.00283717
0.00263224
0.00242081
0.00222966
0.00206747
0.00193549
0.00183622
0.0017231
0.00162824
0.00161833
0.00177026
0.00197138
0.00229612
0.00265173
0.00299158
0.00325007
0.00338609
0.00340747
0.0033488
0.00324566
0.00311945
0.00298201
0.00283709
0.00269006
0.00251503
0.00230408
0.00216881
0.00334378
0.00363894
0.00369527
0.0035873
0.00338316
0.00314896
0.00292309
0.00272311
0.00255636
0.00242471
0.00228141
0.00215977
0.00213102
0.00229199
0.00251333
0.00287862
0.00329376
0.00369366
0.00400681
0.00418614
0.00423463
0.00418028
0.00407116
0.00393103
0.00377324
0.00360999
0.00343939
0.00323806
0.00299675
0.00284806
0.00389707
0.00421757
0.00433029
0.00426084
0.00406613
0.00382014
0.00356945
0.00333936
0.00314262
0.00297965
0.00281132
0.00266672
0.0026207
0.00277827
0.00300446
0.00338696
0.00383739
0.00427835
0.00463827
0.00485293
0.00492623
0.00488352
0.00478004
0.00463998
0.00447469
0.0043041
0.00412162
0.00390614
0.00364475
0.0034963
0.00440756
0.00474818
0.00490845
0.00487358
0.00469037
0.00443836
0.00416958
0.00391513
0.0036918
0.00350087
0.00331045
0.00314558
0.00308494
0.00323838
0.00344818
0.00382979
0.00429622
0.00476034
0.00516024
0.00540849
0.00549887
0.00547146
0.00538292
0.00525652
0.00509641
0.00492274
0.00474253
0.00452355
0.00424964
0.00410694
0.00488338
0.00524163
0.00544118
0.00543451
0.0052617
0.00500654
0.00472443
0.00444995
0.00420339
0.003989
0.00377749
0.0035943
0.00352105
0.00365822
0.00384733
0.00421421
0.00468082
0.00517575
0.005605
0.0058725
0.00596817
0.00595435
0.00588704
0.00578856
0.00564646
0.00548384
0.00530753
0.00509649
0.00481839
0.00468304
0.00532487
0.00570244
0.00593368
0.00594799
0.00578308
0.00552623
0.00523429
0.0049434
0.00467658
0.0044406
0.0042114
0.00401299
0.00393855
0.00404109
0.00420558
0.00454613
0.00502123
0.00551136
0.00595199
0.00625097
0.0063497
0.00634638
0.00627486
0.00618119
0.00608635
0.00597354
0.00582194
0.00562623
0.00535799
0.00522718
0.00574639
0.00613151
0.00638742
0.00641558
0.00625551
0.00599778
0.00569928
0.00539507
0.00511103
0.00485571
0.00461188
0.00440776
0.00432284
0.00439073
0.00452678
0.00483285
0.00528932
0.00577447
0.00622907
0.00655406
0.00665758
0.0066668
0.00661203
0.00652252
0.00643023
0.00634256
0.00624982
0.00609795
0.00586941
0.00574298
0.00614716
0.0065288
0.00680164
0.00683713
0.00667912
0.00642159
0.00611871
0.00580491
0.00550685
0.00523537
0.00498073
0.00476962
0.00467312
0.00470952
0.00481559
0.00509455
0.00551688
0.00598677
0.0064454
0.00678936
0.00690013
0.00692359
0.00688831
0.00681933
0.0067356
0.0066611
0.00658877
0.00650816
0.00634265
0.00623396
0.00652434
0.00689548
0.00717375
0.00721162
0.00705397
0.00679786
0.00649293
0.00617295
0.00586486
0.00558129
0.00531947
0.00510321
0.00499399
0.00500087
0.00507848
0.00531877
0.00570398
0.0061497
0.00660153
0.00696349
0.00708421
0.00712304
0.00710922
0.0070636
0.00700433
0.00694465
0.00689554
0.00684684
0.00676242
0.00668603
0.00687515
0.0072322
0.00750057
0.00753779
0.00738009
0.00712718
0.0068229
0.00650046
0.0061865
0.00589532
0.00562993
0.00540959
0.00528776
0.00526841
0.00531373
0.00551022
0.00584993
0.00626336
0.00669746
0.00707192
0.00720639
0.0072693
0.00727946
0.00725883
0.0072271
0.00719592
0.00716964
0.00715237
0.00711849
0.00708954
0.00720276
0.00753809
0.00778714
0.00781438
0.00765807
0.00741078
0.00711028
0.00678935
0.00647397
0.00617994
0.00591415
0.00569005
0.00555739
0.00550831
0.00551858
0.00566652
0.00595335
0.00632676
0.00673349
0.00711425
0.00726539
0.00735678
0.00739763
0.00740706
0.00740517
0.00740567
0.00741003
0.00742196
0.00742363
0.00743534
0.00749437
0.00781373
0.00803384
0.00804514
0.00788923
0.00765061
0.00735747
0.00704223
0.0067302
0.00643761
0.00617347
0.00594546
0.00579699
0.00571677
0.00568935
0.00578464
0.0060125
0.00633791
0.00671089
0.00708989
0.0072593
0.00738327
0.00746103
0.00750619
0.00753785
0.00757167
0.00761168
0.00765401
0.00768833
0.0077304
0.00774706
0.00804595
0.00823927
0.0082328
0.00808098
0.00784976
0.00756737
0.00726197
0.00695779
0.00666969
0.006406
0.00617297
0.00600248
0.00588858
0.0058216
0.00586091
0.00602544
0.00629587
0.00663074
0.00699857
0.00718633
0.00734618
0.00746559
0.00755222
0.00762269
0.00769243
0.00776705
0.00784497
0.00791164
0.0079824
0.0079461
0.00822593
0.00839515
0.00837728
0.00823243
0.00801165
0.0077422
0.0074499
0.0071559
0.00687413
0.00661026
0.00636562
0.00617118
0.00602132
0.00590995
0.0058912
0.00599019
0.0062014
0.00649397
0.00684086
0.00704515
0.00724271
0.00740684
0.00753978
0.00765414
0.00776308
0.00787355
0.00798583
0.00808759
0.00818717
0.00809379
0.00835129
0.00850055
0.00847691
0.00834416
0.00813798
0.00788237
0.00759958
0.0073083
0.00703009
0.00676256
0.00650817
0.00628814
0.0061004
0.00594743
0.00587098
0.00590436
0.00605571
0.0063024
0.00661887
0.00683709
0.00706943
0.00727919
0.00746286
0.00762573
0.00777726
0.00792454
0.00807063
0.00820661
0.00833187
0.00818285
0.00841705
0.00854044
0.00852681
0.00840444
0.00820423
0.00795942
0.00768832
0.00740783
0.00713255
0.00685992
0.00659458
0.00634642
0.00612072
0.00592589
0.00579487
0.00576625
0.00584774
0.00604475
0.00633753
0.0065871
0.00685562
0.00710562
0.00733507
0.00754079
0.00772961
0.00791176
0.00809145
0.00826174
0.00841526
0.00820774
0.00839531
0.00850979
0.00851239
0.00839708
0.00820823
0.00797498
0.00771573
0.00744353
0.00716839
0.00688766
0.00660782
0.00633244
0.00607217
0.00583593
0.00565592
0.00557312
0.0056004
0.00575053
0.00600275
0.0062612
0.00657313
0.00689224
0.00717436
0.00742269
0.00764566
0.00785631
0.00805972
0.00825234
0.00842864
0.00813819
0.00830151
0.0084198
0.00842634
0.00832079
0.00814257
0.0079184
0.00766818
0.00739982
0.0071202
0.00682745
0.00652992
0.00622784
0.0059383
0.00566693
0.00544554
0.00531955
0.00530265
0.00541196
0.00562205
0.00588086
0.00621349
0.00656731
0.00691441
0.00723384
0.00751991
0.00776974
0.00799382
0.00819827
0.00838832
0.00798709
0.00814064
0.00825249
0.00825981
0.00816143
0.00799109
0.0077741
0.00752696
0.00725641
0.00696659
0.00665774
0.00634033
0.00601404
0.00570065
0.00540594
0.00515487
0.005
0.00495297
0.00502731
0.00519902
0.00545608
0.00579889
0.00617666
0.00656006
0.00691911
0.00724175
0.0075304
0.00779119
0.00802124
0.00823461
0.00774019
0.00789517
0.00799543
0.00799871
0.00790165
0.00773324
0.00751679
0.00726605
0.00698699
0.00668422
0.00635746
0.00602094
0.0056764
0.0053476
0.00504389
0.00478107
0.00460769
0.00454813
0.00459826
0.00473883
0.00498787
0.00533708
0.00572675
0.00612457
0.00650138
0.00685046
0.00717619
0.00747449
0.00773839
0.0079682
0.00738749
0.00754186
0.0076279
0.00762024
0.00751547
0.00734095
0.00711752
0.0068574
0.00656709
0.00625268
0.00591597
0.00556819
0.0052177
0.00488778
0.00459144
0.00433324
0.00415668
0.00409481
0.00413435
0.00425237
0.00448707
0.00482851
0.00521461
0.00561634
0.00600944
0.00638249
0.00673264
0.00705408
0.00733781
0.00758315
0.00690709
0.0070551
0.00711778
0.007091
0.00696979
0.00678351
0.00655109
0.00628442
0.00599116
0.00567899
0.00535159
0.00501499
0.00467968
0.00437034
0.00410064
0.00386181
0.00369471
0.00363369
0.00366514
0.00376843
0.00397965
0.00428973
0.00464804
0.00503177
0.00542057
0.0058008
0.00616385
0.00650099
0.00680052
0.00705929
0.00626687
0.00639502
0.0064283
0.00637886
0.00624307
0.00605274
0.00582604
0.00557434
0.00530518
0.00502551
0.00473851
0.00444852
0.00415717
0.00389354
0.00366887
0.00346006
0.00330964
0.00324959
0.00327358
0.00335586
0.00352003
0.00376903
0.00407028
0.00440366
0.00475366
0.00510961
0.0054611
0.00579557
0.00609937
0.00636523
0.00545118
0.00555158
0.00556321
0.00550768
0.005383
0.00522081
0.00503699
0.00483987
0.0046335
0.00442156
0.00420559
0.00398845
0.0037656
0.00355986
0.00338324
0.00321849
0.0031028
0.00305012
0.00306038
0.00311552
0.00322503
0.00338071
0.00357952
0.00383178
0.00410399
0.00438858
0.00468323
0.00497346
0.00524774
0.00549599
0.00458413