/*--------------------------------*- C++ -*----------------------------------*\
| =========                 |                                                 |
| \\      /  F ield         | OpenFOAM: The Open Source CFD Toolbox           |
|  \\    /   O peration     | Version:  5.0                                   |
|   \\  /    A nd           | Web:      www.OpenFOAM.org                      |
|    \\/     M anipulation  |                                                 |
\*---------------------------------------------------------------------------*/
FoamFile
{
    version     2.0;
    format      ascii;
    class       volScalarField;
    location    "1650/air";
    object      alphat;
}
// * * * * * * * * * * * * * * * * * * * * * * * * * * * * * * * * * * * * * //

dimensions      [1 -1 -1 0 0 0 0];

internalField   nonuniform List<scalar> 
243000
(
0.000167641
0.000170763
0.000167459
0.000162283
0.000155907
0.000148923
0.000141675
0.000134432
0.000127382
0.00012071
0.000114501
0.000108804
0.000103587
9.89014e-05
9.47601e-05
9.12856e-05
8.85964e-05
8.69365e-05
8.59643e-05
8.73367e-05
8.79863e-05
8.86648e-05
8.87582e-05
8.78145e-05
8.75449e-05
0.000380018
0.000374886
0.000360814
0.000327536
0.000366092
0.000729046
0.000771878
0.000781208
0.000779691
0.000771288
0.00075811
0.000741617
0.0007229
0.000702661
0.000681553
0.00065987
0.000637936
0.000615829
0.000594186
0.00057349
0.000554591
0.000538243
0.000526139
0.000520185
0.000515707
0.000513443
0.000509428
0.000500813
0.00048587
0.000460304
0.000440835
0.000406908
0.000372386
0.000336717
0.000333488
0.000785401
0.000828248
0.00084054
0.000840085
0.000831878
0.000818423
0.000801341
0.000781777
0.000760496
0.000738249
0.000715356
0.000692227
0.000669046
0.00064658
0.000625403
0.000606465
0.000590522
0.00057921
0.000572693
0.000569912
0.000568114
0.000564371
0.00055586
0.000540798
0.00051876
0.000490915
0.000456841
0.000415759
0.000374908
0.000349097
0.000809442
0.000854038
0.000869835
0.000872507
0.00086665
0.000855028
0.000839279
0.000820586
0.000799787
0.000777715
0.000754798
0.000731576
0.000708325
0.00068594
0.000665107
0.000646875
0.000631996
0.000621935
0.000616367
0.000613919
0.000611973
0.000607882
0.000599065
0.000583814
0.000561767
0.000533041
0.000498071
0.000454922
0.000411482
0.000379134
0.000812344
0.000856947
0.000878939
0.000886523
0.000884268
0.000875635
0.00086227
0.000845418
0.00082601
0.00080495
0.000782787
0.000760185
0.000737534
0.000715848
0.000695895
0.000678831
0.000665373
0.000656735
0.000652119
0.000649883
0.000647586
0.000642918
0.000633637
0.000618202
0.000596187
0.000567541
0.000532675
0.00048958
0.000444779
0.00040811
0.000801575
0.00084688
0.000874241
0.000887138
0.000889586
0.000884618
0.000874337
0.00085992
0.000842484
0.000823001
0.000802117
0.000780624
0.000759028
0.000738469
0.000719735
0.000704136
0.000692285
0.000685111
0.000681378
0.000679295
0.000676596
0.000671293
0.000661506
0.000645904
0.000624058
0.000595856
0.000561611
0.000519501
0.000474248
0.000434572
0.000779459
0.00082764
0.000860175
0.000878419
0.000885775
0.000885176
0.000878169
0.000866389
0.000851369
0.000833884
0.000814668
0.000794637
0.000774409
0.000755271
0.000737991
0.000724034
0.000713873
0.000708128
0.000705212
0.000703259
0.000700176
0.00069427
0.000684004
0.00066826
0.000646659
0.000619076
0.000585704
0.000544958
0.000500032
0.000458541
0.000747973
0.000800774
0.000838622
0.000862372
0.000874876
0.000878691
0.000875517
0.000867066
0.00085443
0.000839018
0.00082177
0.00080347
0.000784846
0.000767295
0.000751645
0.000739431
0.000730974
0.000726586
0.000724424
0.000722603
0.000719198
0.000712777
0.000702094
0.000686249
0.000664932
0.000638042
0.000605659
0.000566508
0.000522424
0.000480118
0.000710217
0.000768228
0.000811504
0.000840705
0.000858425
0.000866746
0.000867586
0.000862541
0.00085292
0.000839993
0.000824527
0.000808073
0.000791206
0.000775369
0.000761444
0.000751013
0.000744225
0.000741099
0.000739636
0.000737968
0.000734328
0.000727504
0.000716499
0.000700614
0.00067961
0.000653436
0.000622167
0.000584353
0.000541525
0.000499309
0.000673035
0.000734119
0.000781424
0.000815125
0.000837763
0.00085058
0.000855467
0.000854015
0.000847459
0.000837099
0.000824041
0.000809409
0.000794204
0.000780147
0.000767978
0.000759316
0.000754118
0.000752155
0.00075134
0.000749856
0.00074608
0.000738981
0.000727769
0.000711921
0.000691275
0.000665895
0.000635488
0.000598854
0.000557707
0.000516159
0.000638361
0.000699259
0.000750484
0.000788355
0.000814564
0.000831341
0.000840131
0.00084227
0.000838885
0.000831237
0.000820457
0.000807866
0.000794571
0.000782164
0.000771724
0.000764765
0.000761056
0.000760149
0.000759937
0.000758674
0.000754866
0.000747626
0.000736337
0.000720625
0.000700449
0.000675681
0.000646014
0.000610449
0.000571251
0.000530724
0.000610499
0.000664216
0.00071816
0.000760458
0.000790741
0.000810769
0.000822568
0.000828022
0.0008278
0.000822898
0.000814494
0.000803948
0.000792499
0.000781874
0.000773075
0.00076771
0.000765367
0.000765416
0.000765758
0.000764756
0.00076102
0.000753779
0.000742554
0.000727123
0.000707357
0.000683146
0.000654144
0.000619546
0.000582467
0.000543223
0.000595645
0.000631554
0.00068455
0.000730913
0.000765713
0.00078954
0.000804368
0.000812191
0.00081477
0.000812567
0.000806544
0.000798094
0.000788475
0.00077955
0.000772343
0.000768447
0.000767336
0.000768231
0.000769093
0.000768383
0.000764818
0.000757719
0.000746744
0.000731609
0.000712255
0.000688571
0.000660194
0.000627171
0.000591888
0.000553918
0.000600061
0.000607466
0.000651336
0.00069966
0.00073902
0.000767183
0.000785527
0.000796082
0.000800712
0.000800768
0.00079701
0.000790621
0.000782826
0.000775522
0.000769803
0.000767236
0.000767193
0.000768843
0.000770203
0.000769794
0.000766497
0.000759675
0.000748965
0.000734207
0.000715332
0.000692175
0.000664425
0.000633378
0.000599761
0.000563016
0.000625613
0.000601376
0.000623621
0.000667949
0.000710599
0.000743328
0.000765691
0.000779394
0.000786406
0.000788291
0.00078634
0.000781856
0.000775814
0.000770053
0.000765701
0.000764305
0.000765176
0.000767483
0.000769317
0.000769223
0.000766186
0.000759611
0.00074926
0.00073498
0.000716703
0.000694147
0.000667442
0.000638283
0.000606235
0.00057065
0.000666771
0.000622091
0.00061135
0.000639958
0.000681428
0.000717918
0.000744574
0.000761863
0.000771624
0.000775585
0.000775233
0.000772178
0.000767703
0.000763377
0.00076026
0.000759871
0.000761511
0.000764373
0.000766644
0.000766912
0.000764245
0.000758074
0.000748104
0.000734277
0.000716519
0.000694634
0.000669631
0.000642097
0.000611459
0.000576936
0.000716357
0.000665992
0.000626302
0.00062471
0.000654978
0.00069178
0.000722166
0.000743302
0.000756174
0.000762501
0.000763946
0.000762148
0.000758815
0.000755719
0.000753693
0.000754142
0.000756408
0.000759728
0.000762397
0.000763064
0.00076082
0.000755155
0.000745703
0.000732397
0.000715202
0.000694305
0.000670976
0.00064492
0.000615545
0.000581969
0.000767561
0.00072006
0.000667925
0.000633948
0.000638777
0.000667751
0.000699195
0.000723755
0.00073994
0.000748909
0.000752351
0.000752021
0.000749631
0.000747357
0.000746214
0.000747328
0.000750083
0.000753764
0.000756791
0.000757879
0.000756108
0.000750992
0.000742213
0.000729505
0.000712962
0.000693524
0.000671624
0.000646868
0.0006186
0.000585842
0.000815939
0.000773811
0.00072249
0.000670303
0.000642866
0.000651863
0.00067789
0.000703836
0.000723
0.000734745
0.000740375
0.000741676
0.000740413
0.000738671
0.000738078
0.000739658
0.00074276
0.000746708
0.000750051
0.000751567
0.000750306
0.000745797
0.00073773
0.000725761
0.000710367
0.000692311
0.000671637
0.000648037
0.000620725
0.000588656
0.000862752
0.000825144
0.000778579
0.000722874
0.000672312
0.000651714
0.000662648
0.000685197
0.000705844
0.000720096
0.00072799
0.000731044
0.000731067
0.000730046
0.000729692
0.000731415
0.000734692
0.000738805
0.000742409
0.000744346
0.000743621
0.000739767
0.000732459
0.000721531
0.00070752
0.000690743
0.000671191
0.000648567
0.00062204
0.000590506
0.000907889
0.000873598
0.000831581
0.000779015
0.000719623
0.000673264
0.000659446
0.000671003
0.000689674
0.000705348
0.000715285
0.000720132
0.000721529
0.000721398
0.000721446
0.000723039
0.000726201
0.000730346
0.000734132
0.000736457
0.000736276
0.00073312
0.00072678
0.000717207
0.000704505
0.000688925
0.000670399
0.00064858
0.000622683
0.00059152
0.000951147
0.000919367
0.000880765
0.000832384
0.000773124
0.000712513
0.000673132
0.000665431
0.000676644
0.000691356
0.000702563
0.000709029
0.000711823
0.000712693
0.000713288
0.000714942
0.000717958
0.000721915
0.000725739
0.000728375
0.000728797
0.000726495
0.000721223
0.000712903
0.000701458
0.000687013
0.000669427
0.000648306
0.000622845
0.000591858
0.000992909
0.000962679
0.000926354
0.000881363
0.00082522
0.000760396
0.000702693
0.000672292
0.000669601
0.000679582
0.000690458
0.000698007
0.000702074
0.000703987
0.000705246
0.000707134
0.000710115
0.000713948
0.000717791
0.000720685
0.000721663
0.000720156
0.000715893
0.000708754
0.000698541
0.000685213
0.000668521
0.000647985
0.00062278
0.000591742
0.00103225
0.00100302
0.000968282
0.000925872
0.000873134
0.000809256
0.000742385
0.00069222
0.000671419
0.000672068
0.000680113
0.000687676
0.000692648
0.000695545
0.000697546
0.00069982
0.000702881
0.000706658
0.000710513
0.000713622
0.000715101
0.000714327
0.000711022
0.000705
0.000696
0.000683794
0.000667981
0.000647956
0.00062283
0.000591505
0.00106821
0.00103998
0.00100665
0.00096633
0.000916665
0.000855713
0.00078646
0.000723158
0.000684011
0.000671423
0.000673503
0.000679425
0.000684608
0.000688287
0.000691096
0.000693906
0.00069718
0.000700959
0.000704801
0.00070805
0.00070992
0.000709768
0.000707358
0.000702352
0.000694418
0.000683238
0.000668313
0.00064883
0.000623676
0.000591685
0.00110225
0.00107494
0.00104293
0.00100456
0.000957792
0.000900459
0.000832801
0.000763326
0.000709434
0.000681883
0.000674803
0.000676968
0.000681447
0.000685687
0.00068944
0.000693027
0.00069668
0.000700483
0.000704184
0.000707296
0.000709205
0.000709385
0.000707453
0.000703151
0.000696078
0.000685818
0.000671673
0.00065255
0.000626925
0.000593546
0.00113762
0.00111168
0.00108134
0.00104526
0.00100176
0.000948945
0.000885815
0.000816651
0.000754623
0.000713935
0.000696213
0.000692865
0.000695817
0.000700715
0.000705918
0.000710698
0.000714815
0.000718399
0.000721359
0.000723458
0.000724362
0.000723752
0.000721304
0.000716756
0.000709694
0.000699577
0.000685544
0.000666074
0.000639201
0.000603026
0.00118261
0.00115904
0.00113161
0.00109955
0.00106184
0.00101705
0.00096387
0.000903796
0.000844891
0.000800152
0.000776054
0.000768812
0.000771108
0.000777641
0.00078499
0.000791015
0.000794875
0.000796846
0.000797071
0.000795721
0.000792858
0.0007886
0.000782882
0.000775494
0.000765869
0.000753388
0.000737185
0.000715375
0.000685062
0.000642902
0.00126931
0.0012514
0.00123214
0.0012114
0.00118859
0.0011625
0.00113156
0.00109587
0.00105831
0.00102784
0.0010107
0.0010064
0.00101016
0.00101837
0.00102639
0.00103166
0.00103303
0.00103137
0.001027
0.00102038
0.00101194
0.00100219
0.000991371
0.000979283
0.000964425
0.000946487
0.000926092
0.000900864
0.000867573
0.000823037
0.00155348
0.00155055
0.00155133
0.00155183
0.00155109
0.0015482
0.00154219
0.00153348
0.00151971
0.00150701
0.00149849
0.00149433
0.00149305
0.00149603
0.00149905
0.00150105
0.00150037
0.00149959
0.00149838
0.00149742
0.00149647
0.00149588
0.00149541
0.00149467
0.00148861
0.00147834
0.00146915
0.00145619
0.00143785
0.00141325
0.000203137
0.000210566
0.000207991
0.000202222
0.000194646
0.000186116
0.000177199
0.000168291
0.000159627
0.000151397
0.000143671
0.00013655
0.000130043
0.000124299
0.000119367
0.000115465
0.000112744
0.00011158
0.000112099
0.0001138
0.000115552
0.000116207
0.000114886
0.000110984
0.000104198
9.4572e-05
8.43249e-05
0.000362426
0.00036667
8.90584e-05
0.000780517
0.000879466
0.000850125
0.000790587
0.000724833
0.00066279
0.000607495
0.000558979
0.000516692
0.000480127
0.000448122
0.000420363
0.000395507
0.000374168
0.000355586
0.000340368
0.000327556
0.000319922
0.000317417
0.000320389
0.000327563
0.000336044
0.000339804
0.000333413
0.000317057
0.000290465
0.000261965
0.0003117
0.000406831
0.000357352
0.00123307
0.00142204
0.00143279
0.00137241
0.00128729
0.00119731
0.00111197
0.00103396
0.000963993
0.000902284
0.000847442
0.000799371
0.000756018
0.000718757
0.000686739
0.000660276
0.000637068
0.000620933
0.000609765
0.000604886
0.000606981
0.000613297
0.000613639
0.000600891
0.000570189
0.000521766
0.000462351
0.000419371
0.000446979
0.000492605
0.00151757
0.00177157
0.00182684
0.00178975
0.00171404
0.00162229
0.00152822
0.0014379
0.001354
0.00127793
0.00120903
0.00114793
0.00109291
0.0010457
0.0010061
0.000973968
0.000945676
0.000923971
0.00090468
0.000890167
0.000882774
0.000881286
0.000874796
0.0008524
0.000808685
0.000742697
0.000659357
0.000566993
0.000521611
0.000530745
0.00165833
0.00192922
0.0020397
0.0020562
0.00200917
0.00193227
0.00184358
0.0017537
0.00166671
0.00158549
0.00151058
0.00144354
0.00138317
0.00133199
0.00129057
0.00125794
0.00122918
0.0012047
0.0011791
0.00115549
0.00113843
0.00112766
0.00111266
0.00108142
0.00102776
0.000949691
0.000850878
0.000731424
0.000635121
0.000594089
0.00173782
0.00200942
0.00215772
0.00221031
0.00219757
0.00214435
0.00206921
0.00198888
0.00190665
0.00182752
0.00175319
0.00168603
0.00162587
0.00157586
0.00153726
0.00150818
0.00148209
0.001457
0.00142654
0.00139544
0.00136936
0.00134955
0.00132604
0.00128772
0.0012271
0.00114127
0.00103337
0.000900107
0.000772724
0.000688919
0.0017655
0.00202496
0.00219249
0.00227766
0.00229923
0.00227636
0.00222679
0.00215725
0.00208208
0.00201082
0.0019427
0.00188024
0.00182472
0.00178024
0.00174802
0.00172558
0.00170433
0.00168
0.00164595
0.00160901
0.0015752
0.00154672
0.0015161
0.00147232
0.00140731
0.00131746
0.00120468
0.00106502
0.0009209
0.000804371
0.00173784
0.00197322
0.00215712
0.002274
0.00233083
0.00233843
0.00231441
0.00226649
0.00220989
0.00214821
0.00208534
0.00203182
0.00198403
0.0019487
0.00192552
0.00191212
0.00189743
0.00187445
0.00183805
0.00179681
0.00175693
0.00172233
0.00168591
0.00163706
0.00156949
0.00147837
0.00136444
0.00122288
0.00107081
0.000929748
0.00163346
0.00185868
0.00206136
0.00221109
0.00230412
0.00234329
0.00234698
0.00232547
0.00228807
0.00224193
0.00219361
0.00214742
0.00210856
0.00208453
0.00207266
0.00207009
0.00206287
0.00204176
0.00200442
0.00196001
0.00191665
0.00187725
0.00183643
0.00178524
0.00171537
0.00162481
0.00151277
0.0013737
0.00121864
0.00105721
0.00148917
0.00169327
0.00191481
0.002099
0.00222855
0.00230134
0.00233641
0.00234206
0.00232783
0.00229975
0.00226568
0.00223136
0.00220427
0.00219149
0.00219215
0.00220168
0.00220193
0.00218358
0.00214614
0.0021003
0.00205457
0.00201116
0.00196747
0.00191523
0.00184699
0.00175872
0.00164919
0.00151265
0.00135748
0.00117923
0.00135193
0.00150748
0.00172392
0.00193928
0.00211211
0.00222038
0.00228979
0.00232406
0.00233352
0.00232591
0.00230773
0.00228754
0.00227292
0.00227286
0.00228633
0.00230826
0.00231635
0.00230149
0.00226523
0.00221956
0.00217272
0.00212669
0.00208124
0.0020294
0.00196487
0.00187851
0.00177105
0.00163964
0.00148456
0.00129426
0.00124211
0.00133159
0.0015188
0.00174408
0.00194959
0.00210455
0.00221296
0.00227651
0.00231059
0.00232352
0.00232318
0.00231855
0.00231797
0.00233165
0.00235751
0.00239127
0.00240748
0.0023975
0.00236346
0.00231926
0.00227268
0.00222597
0.00218023
0.00212967
0.0020663
0.00198389
0.0018793
0.0017562
0.00159913
0.00140417
0.00116835
0.0011884
0.00132643
0.00153753
0.00175955
0.00195145
0.00210035
0.00220318
0.00226227
0.00229708
0.00231523
0.00232737
0.00234195
0.00236961
0.00240744
0.00245244
0.00247719
0.00247276
0.0024428
0.00240033
0.00235579
0.0023105
0.00226405
0.00221386
0.00215224
0.00207363
0.00197475
0.00185656
0.00169884
0.00150011
0.00116011
0.00109812
0.00117083
0.00134306
0.00156103
0.00177609
0.00195797
0.00209617
0.00219071
0.00224972
0.00228763
0.00231664
0.0023469
0.00238783
0.00243805
0.00249343
0.00252631
0.00252857
0.00250444
0.00246413
0.00241977
0.00237294
0.00232685
0.00228062
0.00222319
0.00214935
0.00205991
0.00194175
0.00178298
0.00158116
0.00120569
0.00108469
0.0010796
0.00118981
0.0013768
0.00159479
0.00179794
0.00196459
0.00209101
0.00218137
0.00224258
0.00228904
0.00233448
0.00238852
0.00245079
0.00251583
0.00255679
0.0025669
0.00254945
0.00251289
0.00247155
0.00242647
0.00237937
0.00233166
0.00228065
0.00221477
0.00213205
0.00201259
0.00185181
0.00164703
0.00131176
0.00114434
0.00106408
0.00110158
0.00123224
0.00142634
0.00163367
0.00181902
0.00197136
0.00209004
0.00217894
0.00224624
0.0023068
0.00237347
0.00244715
0.00252121
0.00257022
0.00258897
0.002579
0.00254793
0.00251068
0.00246936
0.00242439
0.0023774
0.00232902
0.00227227
0.00219037
0.00206943
0.00190593
0.00169808
0.00148675
0.00128656
0.00114356
0.0010899
0.00115093
0.00129221
0.00148093
0.00167133
0.00184081
0.00198252
0.00209635
0.00218799
0.00226565
0.00234431
0.00242869
0.00251121
0.00256829
0.00259608
0.00259443
0.00257043
0.00253845
0.00250183
0.00246293
0.00241917
0.0023746
0.00232077
0.00223678
0.00211344
0.0019464
0.00173516
0.00172821
0.00150761
0.00131787
0.00118628
0.00114762
0.00121754
0.00135964
0.00153551
0.0017097
0.00186653
0.00200051
0.00211373
0.0022117
0.00230267
0.00239713
0.00248765
0.00255281
0.00258976
0.0025973
0.002582
0.00255633
0.00252621
0.002494
0.0024586
0.00241729
0.00236025
0.00227305
0.00214628
0.00197476
0.00175954
0.00202755
0.00179543
0.00157449
0.0013813
0.00125242
0.00122109
0.00129223
0.00142841
0.0015901
0.00175097
0.001898
0.00202829
0.00214395
0.00225087
0.00235453
0.00245258
0.00252585
0.00257183
0.00258955
0.00258466
0.00256676
0.00254556
0.00252247
0.00249536
0.0024538
0.00239246
0.00230122
0.00217004
0.00199294
0.00177286
0.00237085
0.0021329
0.00189161
0.00165524
0.00145206
0.00132364
0.00129645
0.00136829
0.00149616
0.00164602
0.00179635
0.00193717
0.00206616
0.00218669
0.00230288
0.00240811
0.00248936
0.00254439
0.00257346
0.00258054
0.00257364
0.0025618
0.00254759
0.00252652
0.00248271
0.00241865
0.00232417
0.00218736
0.00200342
0.00177731
0.00273801
0.00249807
0.00224375
0.00197847
0.00172181
0.00151131
0.00138813
0.00136836
0.00144101
0.00156279
0.00170383
0.00184616
0.00198215
0.00211251
0.00223717
0.00235148
0.00244217
0.00250684
0.00254737
0.00256657
0.00257161
0.00256951
0.00256389
0.00254462
0.00250509
0.00244235
0.00234337
0.0022003
0.00200873
0.00177556
0.00310197
0.00286287
0.00260148
0.0023186
0.00202713
0.00175692
0.00155058
0.00144
0.00143455
0.00150941
0.00162763
0.00175986
0.00189444
0.00202674
0.00215299
0.00227021
0.0023675
0.0024419
0.00249378
0.00252616
0.00254434
0.00255348
0.00255622
0.00254857
0.00251644
0.00245404
0.00235215
0.0022067
0.00200922
0.00176924
0.00342799
0.00319291
0.00293092
0.00264089
0.00233097
0.00202345
0.00175569
0.00156579
0.00148026
0.00149037
0.001565
0.00167599
0.00179653
0.00191857
0.00203438
0.00214447
0.00224143
0.00232068
0.00238169
0.00242714
0.00246108
0.00248666
0.00250503
0.00251364
0.00249845
0.00244727
0.0023478
0.00219752
0.00200023
0.00175762
0.00367271
0.00344715
0.00319303
0.00290722
0.00259423
0.00226964
0.00196348
0.00171305
0.00155419
0.00149445
0.00151108
0.00157694
0.00166443
0.00175806
0.00184776
0.00193687
0.00202097
0.00209755
0.00216557
0.00222565
0.00227877
0.00232647
0.00236859
0.00240183
0.00241346
0.00238972
0.00231152
0.00217277
0.00197411
0.00173506
0.00378756
0.00358081
0.00334578
0.00307708
0.00277594
0.00245234
0.00212895
0.00183899
0.00162033
0.001491
0.00144044
0.00144335
0.00147864
0.0015278
0.00158428
0.00164606
0.00170982
0.00177636
0.0018434
0.00191112
0.00197895
0.00204727
0.00211379
0.00217475
0.00221983
0.00223468
0.0021998
0.00209507
0.00192351
0.00169722
0.00373631
0.00356225
0.00336008
0.00312274
0.00284875
0.00254448
0.00222776
0.00192753
0.00167893
0.00150347
0.00139977
0.00135076
0.0013443
0.00136425
0.00140228
0.00144802
0.00149403
0.00154186
0.00159264
0.00164655
0.0017031
0.00176381
0.00182813
0.00189338
0.00195208
0.0019918
0.00199421
0.00193865
0.00180457
0.00161738
0.00353866
0.00341423
0.00326229
0.00307494
0.00284956
0.00259248
0.00232026
0.00205882
0.00183587
0.00166953
0.00155926
0.00150055
0.00148737
0.00150442
0.00154082
0.00158065
0.0016135
0.00164337
0.00167115
0.0016969
0.0017223
0.00174957
0.00177956
0.00181125
0.00184055
0.00185928
0.00185283
0.00180251
0.00168754
0.00150297
0.00335013
0.00328608
0.00319506
0.00307124
0.00291277
0.00272827
0.00253303
0.00234494
0.00218183
0.00205384
0.00196463
0.00191943
0.00190988
0.00192577
0.00195638
0.00198862
0.00201265
0.00203428
0.00205061
0.00206358
0.00207404
0.00208339
0.00209173
0.00209722
0.00209638
0.00208383
0.00204793
0.00197128
0.00183332
0.00162001
0.00325309
0.00322991
0.00320011
0.0031454
0.0030628
0.00295674
0.00283502
0.0027124
0.00259951
0.00250437
0.00243488
0.00239437
0.00237778
0.00238045
0.00239351
0.00241157
0.00242693
0.00244415
0.00246005
0.00247672
0.00249416
0.00251211
0.00252937
0.00254302
0.00254911
0.00254452
0.00251934
0.0024598
0.00235208
0.00218581
0.00323876
0.0032385
0.00323737
0.00321601
0.00317333
0.00311817
0.00305037
0.00297674
0.00290297
0.00284042
0.00278791
0.00274916
0.00272385
0.00271242
0.00270908
0.00271545
0.00272499
0.00273999
0.00275942
0.00278444
0.00281404
0.00284657
0.00287978
0.00291112
0.00293723
0.00295999
0.00296919
0.00295819
0.00292854
0.00287448
0.000234127
0.0002415
0.000236779
0.000229726
0.000221011
0.000211315
0.000201228
0.000191179
0.000181417
0.000172148
0.000163437
0.000155403
0.000148028
0.000141508
0.000135903
0.000131534
0.000128692
0.000128388
0.000131141
0.000135612
0.000139359
0.000140743
0.000138846
0.00013307
0.000122973
0.000107993
8.7774e-05
0.000370477
8.79743e-05
9.26326e-05
0.00100458
0.00115119
0.00115435
0.00109063
0.00100793
0.000926415
0.000852617
0.000787708
0.000730738
0.000680881
0.000636109
0.000596088
0.000558311
0.00052437
0.000492545
0.000464444
0.000439556
0.000428216
0.000431288
0.000448384
0.000472326
0.000494737
0.000502685
0.000487125
0.000447404
0.000389891
0.000323561
0.000333193
0.000343704
0.00038461
0.00160563
0.00188377
0.0019509
0.00190588
0.00181223
0.00170298
0.00159388
0.00149179
0.00139835
0.00131391
0.00123631
0.00116566
0.00109841
0.00103753
0.000981377
0.000930755
0.000884195
0.000856607
0.000845794
0.000855847
0.000880199
0.000908202
0.000913872
0.000883246
0.000816511
0.000713373
0.000589162
0.000487493
0.000467482
0.000569473
0.00204275
0.00237664
0.00248773
0.00247957
0.00240305
0.00229688
0.00218038
0.00206475
0.00195433
0.00185143
0.001755
0.00166614
0.00158177
0.00150536
0.00143641
0.00137442
0.00131586
0.00127464
0.00124788
0.00124447
0.00125813
0.00128159
0.00128215
0.00124277
0.00115488
0.00102114
0.000856793
0.00068657
0.000588987
0.00062903
0.00232907
0.00266246
0.00282353
0.00286078
0.00281374
0.00272518
0.00261669
0.00250285
0.00238895
0.00227982
0.00217586
0.00207937
0.00198771
0.00190567
0.00183387
0.00176909
0.00170472
0.00165185
0.00160909
0.00158882
0.0015915
0.00160679
0.00160314
0.00155705
0.0014586
0.00130804
0.00111909
0.000908299
0.000745699
0.000713124
0.00250521
0.00282023
0.00301033
0.00308866
0.00308333
0.00302036
0.00292834
0.00282733
0.00271871
0.00261264
0.00250988
0.00241375
0.00232321
0.00224382
0.00217655
0.00211493
0.00204802
0.00198427
0.00192634
0.00189097
0.00188087
0.00188776
0.00188005
0.00183179
0.00173012
0.0015733
0.0013725
0.00113868
0.000931731
0.000837725
0.00263251
0.0029191
0.0031093
0.00321151
0.00323937
0.00321283
0.00315158
0.00305933
0.00295886
0.00286387
0.0027695
0.00268001
0.00259743
0.00252768
0.00247038
0.00241612
0.00234834
0.00227401
0.00220216
0.00215326
0.00213217
0.00212973
0.00211804
0.00207205
0.00197208
0.00181687
0.00161416
0.00137151
0.00113582
0.000992752
0.00270532
0.00293651
0.00312109
0.00324379
0.00330418
0.00331142
0.00328087
0.00321609
0.00314173
0.00305482
0.00296541
0.00288764
0.00281784
0.00276369
0.00272071
0.00267642
0.00260914
0.00252446
0.0024406
0.00238053
0.00234951
0.00233786
0.00232242
0.00227921
0.0021888
0.00204006
0.00184464
0.00160157
0.00135067
0.00116481
0.00267615
0.00287224
0.00305431
0.00319831
0.0032921
0.00333482
0.00333633
0.00330333
0.00325074
0.00318447
0.00311499
0.00304828
0.00299198
0.00295731
0.0029321
0.00289956
0.00283301
0.00273938
0.00264619
0.00257644
0.00253738
0.00251725
0.00249848
0.00245851
0.00237951
0.00224411
0.00205555
0.00181865
0.00156386
0.0013423
0.00256718
0.00273506
0.00291845
0.00308629
0.00321531
0.00329515
0.00333091
0.00333078
0.00330527
0.0032629
0.00321383
0.00316598
0.00313017
0.00311399
0.00310818
0.0030888
0.00302239
0.00292278
0.00282321
0.00274653
0.00270022
0.0026732
0.00265136
0.00261549
0.00254582
0.00242424
0.00224662
0.00202229
0.0017686
0.00152087
0.00243649
0.00256282
0.00273598
0.00292154
0.00308377
0.00320257
0.00327478
0.00330787
0.00331264
0.00329701
0.00327164
0.00324646
0.00323209
0.00323784
0.00325191
0.00324586
0.0031791
0.00307555
0.0029738
0.00289384
0.00284201
0.00280989
0.00278594
0.00275214
0.00268782
0.00257915
0.0024171
0.00221011
0.00196138
0.00169956
0.00230904
0.00236938
0.00252003
0.00271492
0.00290658
0.00306372
0.00317546
0.00324351
0.00327989
0.00329276
0.00329371
0.0032935
0.00330351
0.00333178
0.00336659
0.00337221
0.00330902
0.00320565
0.00310331
0.00302223
0.00296623
0.00293189
0.00290455
0.00287004
0.00281025
0.00271321
0.00257113
0.00237731
0.00213589
0.00186862
0.00219855
0.00217528
0.00228915
0.00248031
0.00269363
0.0028862
0.00303727
0.00314385
0.00321404
0.00325646
0.00328488
0.00331139
0.00334685
0.00339793
0.00345388
0.00347031
0.00341324
0.00331451
0.00321355
0.00313398
0.00307726
0.00303721
0.00300668
0.00297231
0.002917
0.00283312
0.00270846
0.00252477
0.00229034
0.00202048
0.00211891
0.00201283
0.00207158
0.00223872
0.0024591
0.00267932
0.00286707
0.00301177
0.00311758
0.00319294
0.00324971
0.00330344
0.00336479
0.00343935
0.00351515
0.00354256
0.003495
0.00340446
0.00330676
0.00322767
0.00316696
0.00312412
0.0030919
0.00306119
0.00301136
0.00294169
0.00282769
0.00265262
0.00242406
0.00215313
0.00212358
0.00192814
0.00190527
0.00202075
0.00222484
0.00245719
0.00267386
0.00285376
0.002995
0.00310406
0.00319203
0.00327296
0.00335988
0.0034579
0.00355227
0.00359147
0.00355585
0.00347754
0.00338567
0.00331189
0.00325137
0.00320619
0.00317387
0.00314216
0.00310143
0.00303817
0.00292965
0.00276128
0.00253706
0.00226547
0.00220129
0.00195759
0.00183504
0.00186693
0.00202295
0.00224166
0.00247138
0.0026787
0.00285233
0.00299426
0.00311356
0.00322291
0.00333412
0.00345559
0.00356697
0.00361921
0.00359847
0.00353526
0.00345225
0.00338429
0.00332845
0.00328492
0.0032544
0.00322216
0.00318641
0.00312289
0.00301614
0.00285303
0.00263016
0.00235733
0.00236742
0.00208822
0.00189125
0.00182351
0.00189691
0.00206395
0.00228041
0.00249963
0.00269773
0.00286886
0.00301798
0.00315518
0.00328964
0.00343379
0.00356063
0.0036272
0.00362389
0.00357804
0.00350722
0.00344681
0.00339741
0.00336096
0.00333266
0.00330038
0.00326165
0.00319623
0.00308815
0.00292587
0.00270355
0.00242887
0.00264265
0.00234043
0.00208515
0.00191842
0.0018688
0.00196094
0.00212888
0.00233485
0.0025426
0.0027348
0.00290947
0.00307207
0.00322876
0.0033925
0.00353357
0.00361546
0.00363151
0.003605
0.00354964
0.00349918
0.00345858
0.00343081
0.00340283
0.00336809
0.00332638
0.00325789
0.00314655
0.00298172
0.00275855
0.00248075
0.00300676
0.0026925
0.00239784
0.00215193
0.00199425
0.00195937
0.00204789
0.00220684
0.00240143
0.00260066
0.00279268
0.00297519
0.0031518
0.00332933
0.00348314
0.00358048
0.0036171
0.00361149
0.00357539
0.0035364
0.00350644
0.0034848
0.00345379
0.00342182
0.00337947
0.00330803
0.00319217
0.0030224
0.00279499
0.00251392
0.00342344
0.00310465
0.00278572
0.00248484
0.00223628
0.00208345
0.00205264
0.0021368
0.00228973
0.00247538
0.00267168
0.00286505
0.00305503
0.00323841
0.00339951
0.00351068
0.00356792
0.00358356
0.00356952
0.00354388
0.00352417
0.00350652
0.00349101
0.0034667
0.00342468
0.00334947
0.0032273
0.00305012
0.00281577
0.00253041
0.00384823
0.00352928
0.00319695
0.00286189
0.00254957
0.00229963
0.00215406
0.00213143
0.00221106
0.00236536
0.00254848
0.00273655
0.00292669
0.00311062
0.00326407
0.00338173
0.00345683
0.00349427
0.00350232
0.00349556
0.00349067
0.00348768
0.00348457
0.00346913
0.00343076
0.00336061
0.00324203
0.00306385
0.0028238
0.0025318
0.0042327
0.00391727
0.00358049
0.0032281
0.00287768
0.00256043
0.002319
0.00218944
0.00217711
0.00225938
0.00240456
0.00257084
0.0027413
0.00290166
0.00304552
0.00316197
0.00325196
0.00330751
0.00333783
0.00335483
0.00337234
0.0033904
0.00340688
0.00341128
0.00338588
0.00331597
0.00320372
0.00304064
0.00280755
0.00251765
0.00452806
0.00422148
0.00388957
0.00353451
0.0031677
0.00281164
0.00250225
0.00227962
0.00216859
0.00216121
0.00223442
0.00234839
0.00248073
0.00260999
0.00272633
0.00283503
0.00293008
0.00299901
0.00305189
0.00309421
0.00313905
0.00318358
0.00322637
0.00325826
0.00326253
0.00321564
0.00311114
0.0029491
0.00274076
0.00247185
0.00468996
0.00440125
0.00408534
0.00374179
0.00337721
0.00300683
0.00265818
0.00236745
0.00216739
0.00206682
0.00204876
0.00208981
0.00216745
0.0022621
0.00235979
0.0024592
0.00254768
0.002623
0.0026881
0.00274982
0.00281317
0.00287782
0.00294258
0.00299978
0.00303464
0.00302653
0.0029526
0.00281666
0.00261769
0.00236963
0.00469152
0.00443356
0.00414765
0.00383109
0.00348701
0.00312566
0.00276832
0.00244629
0.00219299
0.00202545
0.00193544
0.00191619
0.00195219
0.00202162
0.00211447
0.00220452
0.00228168
0.00234817
0.00240887
0.00246742
0.00252488
0.00258446
0.00264628
0.00270513
0.00274942
0.00276204
0.00272192
0.0026129
0.00244324
0.00223635
0.00454646
0.00433651
0.00409919
0.00382922
0.00352765
0.0032029
0.00287381
0.00256883
0.00231866
0.0021368
0.00202255
0.00198315
0.00200261
0.00206169
0.00214853
0.00222718
0.00228789
0.00233641
0.0023804
0.00241688
0.00244948
0.00248143
0.00251392
0.00254441
0.00256502
0.00256289
0.00251953
0.00241885
0.00225068
0.00204389
0.00433867
0.00419746