/*--------------------------------*- C++ -*----------------------------------*\
| =========                 |                                                 |
| \\      /  F ield         | OpenFOAM: The Open Source CFD Toolbox           |
|  \\    /   O peration     | Version:  5.0                                   |
|   \\  /    A nd           | Web:      www.OpenFOAM.org                      |
|    \\/     M anipulation  |                                                 |
\*---------------------------------------------------------------------------*/
FoamFile
{
    version     2.0;
    format      ascii;
    class       volScalarField;
    location    "1650/air";
    object      epsilon;
}
// * * * * * * * * * * * * * * * * * * * * * * * * * * * * * * * * * * * * * //

dimensions      [0 2 -3 0 0 0 0];

internalField   nonuniform List<scalar> 
243000
(
3.41152
4.19813
4.59304
4.82695
4.91385
4.88258
4.75335
4.54854
4.28859
3.99583
3.68547
3.36956
3.05219
2.74462
2.45439
2.19447
1.97382
1.80586
1.79925
1.63989
1.5487
1.44976
1.31292
1.13528
1.00954
0.200757
0.171913
0.148267
0.117192
0.112951
1.77372
2.10512
2.18247
2.16983
2.10045
1.99461
1.86722
1.72937
1.58814
1.44927
1.31531
1.18847
1.06917
0.960409
0.863588
0.781136
0.714302
0.667523
0.638421
0.629285
0.621456
0.607252
0.577059
0.527047
0.462551
0.385185
0.311345
0.23662
0.175223
0.169771
2.21724
2.60023
2.71786
2.71353
2.63483
2.50905
2.35522
2.18689
2.01313
1.8416
1.67555
1.51826
1.37084
1.23741
1.11991
1.02144
0.943333
0.890639
0.861469
0.849641
0.842
0.82577
0.789128
0.72681
0.642495
0.543023
0.437931
0.329966
0.241953
0.194856
2.42646
2.85008
3.01141
3.0394
2.9787
2.86052
2.70539
2.52865
2.34123
2.15274
1.96803
1.79197
1.62657
1.47732
1.34696
1.23951
1.1564
1.10268
1.07409
1.06201
1.05247
1.03188
0.987832
0.914398
0.814679
0.695858
0.567673
0.432515
0.319955
0.249773
2.45184
2.87849
3.10618
3.18764
3.16352
3.07188
2.93345
2.76485
2.57882
2.38662
2.19494
2.01033
1.83605
1.67898
1.54273
1.43241
1.34948
1.29838
1.27203
1.25978
1.24709
1.22074
1.16888
1.08564
0.97373
0.839969
0.694461
0.53917
0.40409
0.311649
2.35488
2.77755
3.05598
3.19356
3.22036
3.16689
3.0579
2.90919
2.73587
2.55051
2.36132
2.17666
2.00111
1.8431
1.7067
1.59861
1.51996
1.47409
1.45106
1.43866
1.42226
1.38954
1.32993
1.23815
1.11674
0.97205
0.8139
0.644224
0.489869
0.376521
2.16456
2.59181
2.91015
3.0997
3.17857
3.17241
3.09783
2.97494
2.82299
2.65271
2.47363
2.29576
2.12506
1.97165
1.8398
1.73796
1.66664
1.62772
1.60872
1.5963
1.57612
1.53708
1.47019
1.37113
1.24245
1.09014
0.92319
0.743657
0.57424
0.442527
1.91206
2.34684
2.69617
2.93229
3.06211
3.10267
3.0694
2.98154
2.85323
2.70168
2.5386
2.37292
2.21193
2.06717
1.94371
1.85117
1.78931
1.75836
1.74378
1.73163
1.70801
1.6632
1.58984
1.48476
1.35069
1.19336
1.02076
0.835417
0.654927
0.508132
1.63665
2.07162
2.44242
2.71621
2.89206
2.97734
2.98628
2.93467
2.83771
2.71078
2.56396
2.41368
2.26593
2.13295
2.02062
1.93947
1.88837
1.86583
1.85592
1.84438
1.81799
1.76831
1.68959
1.57985
1.44203
1.28176
1.10647
0.916864
0.729464
0.571642
1.39274
1.80754
2.18048
2.47528
2.68774
2.81337
2.86242
2.84809
2.78317
2.68251
2.55909
2.42543
2.29155
2.17244
2.07297
2.00446
1.96466
1.95056
1.94538
1.93488
1.90657
1.8532
1.77045
1.65746
1.51746
1.3564
1.17902
0.986806
0.796866
0.631592
1.18856
1.56192
1.93133
2.23908
2.47032
2.62635
2.7108
2.73178
2.69917
2.6262
2.52555
2.41128
2.29451
2.18917
2.10332
2.04785
2.01934
2.01338
2.01286
2.00385
1.97461
1.91887
1.83358
1.71886
1.57856
1.417
1.23852
1.04522
0.856373
0.686663
1.04021
1.33865
1.69213
2.00942
2.25958
2.43592
2.54397
2.59511
2.59322
2.54762
2.47058
2.37611
2.27638
2.18653
2.11425
2.07151
2.05379
2.05547
2.05938
2.05233
2.02317
1.96651
1.88028
1.76565
1.62561
1.46439
1.28581
1.0926
0.907826
0.736395
0.967227
1.15102
1.46538
1.78395
2.05147
2.24929
2.37859
2.44887
2.47238
2.45256
2.39865
2.32432
2.24164
2.1669
2.1081
2.07737
2.06961
2.07815
2.08631
2.08155
2.05349
1.99736
1.91215
1.79839
1.65949
1.49946
1.32175
1.13322
0.952528
0.780774
0.990568
1.0252
1.26241
1.5646
1.84405
2.06331
2.2151
2.30579
2.3464
2.347
2.31431
2.25938
2.19358
2.13329
2.08721
2.06744
2.06834
2.08301
2.09526
2.09293
2.0669
2.01272
1.92912
1.81749
1.68098
1.52305
1.34726
1.16709
0.990988
0.819895
1.12452
0.996422
1.10876
1.36143
1.63919
1.87651
2.05125
2.16358
2.22266
2.23881
2.22237
2.18482
2.13494
2.08828
2.05385
2.04368
2.05194
2.07185
2.08792
2.08815
2.06427
2.01208
1.93127
1.82311
1.69056
1.53602
1.36554
1.19432
1.02338
0.853714
1.36314
1.10567
1.0464
1.19803
1.44554
1.69039
1.88594
2.02061
2.09946
2.1321
2.12935
2.10448
2.06846
2.03423
2.0102
2.00815
2.02243
2.0466
2.06607
2.06925
2.04846
1.99978
1.92223
1.81779
1.68918
1.53917
1.37893
1.21579
1.05003
0.882252
1.6921
1.35928
1.12809
1.11615
1.28427
1.51244
1.72058
1.87628
1.97565
2.02582
2.03752
2.02338
1.99725
1.97342
1.95836
1.96288
1.98186
2.00933
2.03175
2.0381
2.0209
1.97661
1.90367
1.80377
1.6798
1.53691
1.38719
1.23185
1.07119
0.905552
2.08156
1.71904
1.37117
1.16944
1.19285
1.36076
1.56159
1.73197
1.85094
1.91923
1.94598
1.94363
1.92545
1.90845
1.90044
1.90995
1.93234
1.96216
1.98706
1.99665
1.98342
1.94396
1.87694
1.78238
1.664
1.53167
1.39117
1.24301
1.0872
0.923749
2.50097
2.13404
1.73719
1.38566
1.2188
1.26715
1.42357
1.59289
1.72658
1.81223
1.85437
1.86436
1.85514
1.84251
1.83876
1.85153
1.87606
1.90733
1.9342
1.94696
1.93792
1.90374
1.84299
1.75499
1.64583
1.5236
1.39122
1.24975
1.09843
0.937113
2.95724
2.58832
2.17489
1.74025
1.39747
1.26897
1.33086
1.47002
1.60658
1.70588
1.76273
1.78519
1.78562
1.77855
1.7766
1.79009
1.81533
1.84714
1.87541
1.89113
1.88638
1.85776
1.80364
1.72439
1.62607
1.51324
1.38844
1.25281
1.10542
0.945962
3.44677
3.07104
2.64977
2.1788
1.71636
1.40224
1.31371
1.38145
1.49894
1.6032
1.67195
1.70633
1.71651
1.71595
1.71686
1.72907
1.75284
1.78413
1.8131
1.83136
1.8308
1.80794
1.76187
1.69349
1.60532
1.50131
1.38353
1.25288
1.10884
0.950827
3.9642
3.58046
3.14872
2.65838
2.12983
1.66498
1.39999
1.3489
1.41624
1.50986
1.58432
1.62853
1.64806
1.65445
1.65911
1.67142
1.69357
1.72276
1.75132
1.77144
1.77534
1.75919
1.72162
1.66309
1.58454
1.48883
1.37752
1.2513
1.1097
0.952432
4.51059
4.11144
3.66387
3.15608
2.59074
2.02577
1.59555
1.39329
1.37363
1.43449
1.50396
1.55375
1.5812
1.59445
1.60347
1.61705
1.63843
1.66608
1.69412
1.71564
1.72347
1.71335
1.6836
1.63413
1.5648
1.47714
1.37193
1.24944
1.10935
0.951851
5.06997
4.6516
4.18503
3.65921
3.06913
2.4431
1.8839
1.52344
1.38654
1.38824
1.43769
1.48587
1.51835
1.5377
1.55139
1.56721
1.58863
1.61529
1.64282
1.6654
1.67663
1.67187
1.6493
1.6082
1.54773
1.46796
1.36861
1.24927
1.1096
0.950679
5.62027
5.18623
4.70349
4.16076
3.55183
2.88917
2.24147
1.73942
1.46807
1.38548
1.39677
1.43328
1.46616
1.49004
1.50867
1.52766
1.55008
1.57626
1.60323
1.62639
1.64017
1.63982
1.62374
1.59001
1.53712
1.46435
1.37064
1.25432
1.11411
0.951511
6.17684
5.72869
5.23165
4.67512
4.05213
3.36699
2.66263
2.04776
1.64018
1.45292
1.40586
1.41829
1.4462
1.47332
1.49785
1.52178
1.54658
1.5728
1.59871
1.62087
1.63487
1.63685
1.62415
1.59524
1.54802
1.4809
1.39135
1.27598
1.13157
0.960472
6.79301
6.33796
5.83252
5.26748
4.63668
3.941
3.20482
2.50916
1.97628
1.66971
1.5455
1.5216
1.54028
1.57274
1.60808
1.64126
1.67045
1.69637
1.71821
1.7341
1.74144
1.73785
1.72098
1.68924
1.6403
1.57154
1.47913
1.3568
1.19923
1.00713
7.63244
7.1837
6.68465
6.13151
5.52145
4.85125
4.12838
3.40156
2.77535
2.35304
2.14294
2.08089
2.09801
2.15097
2.21224
2.26364
2.29727
2.31494
2.31759
2.30667
2.28273
2.24702
2.19932
2.13836
2.06035
1.96176
1.83828
1.68017
1.47575
1.22011
9.43023
9.03425
8.62181
8.19192
7.73646
7.23642
6.67193
6.05706
5.45032
4.98655
4.73519
4.67058
4.71993
4.83388
4.94785
5.02394
5.04404
5.01995
4.95705
4.86257
4.74372
4.60884
4.46215
4.30177
4.10966
3.88527
3.64007
3.35108
2.99368
2.55713
17.2108
17.1122
17.1375
17.1529
17.126
17.0276
16.8268
16.5379
16.09
15.6817
15.4094
15.2754
15.2319
15.3198
15.4106
15.4713
15.4501
15.4256
15.3886
15.3593
15.3308
15.3133
15.2995
15.2773
15.0926
14.7831
14.5099
14.1298
13.6038
12.9225
6.06981
7.87115
8.80061
9.33994
9.56242
9.53086
9.30111
8.92481
8.44054
7.88501
7.28197
6.66192
6.04028
5.45013
4.90772
4.44296
4.06993
3.8204
3.69116
3.62849
3.51652
3.26736
2.84941
2.29371
1.68208
1.10165
0.751594
0.150149
0.130792
0.512743
3.82969
4.46563
4.88367
5.12542
5.21507
5.17199
5.02087
4.79143
4.50784
4.19091
3.85741
3.52214
3.19753
2.89658
2.63189
2.41654
2.261
2.1819
2.1844
2.22828
2.23576
2.14725
1.94409
1.64684
1.29171
0.929016
0.598195
0.328482
0.290325
0.231648
3.37204
3.81633
4.10171
4.26312
4.32228
4.29044
4.17865
4.00431
3.78401
3.53407
3.26844
3.00002
2.73959
2.49971
2.29156
2.12937
2.02148
1.98075
2.00977
2.07265
2.10318
2.04995
1.8963
1.65066
1.34991
1.02772
0.717858
0.446128
0.341348
0.293412
3.0795
3.44347
3.6853
3.82656
3.88777
3.87836
3.80191
3.66914
3.49248
3.28554
3.06062
2.83003
2.60363
2.39557
2.21711
2.08289
2.00022
1.97974
2.01865
2.08287
2.11644
2.07422
1.93941
1.72109
1.44661
1.14396
0.842398
0.557634
0.387143
0.296371
2.80166
3.09777
3.32562
3.47327
3.55331
3.5729
3.53214
3.43719
3.29836
3.12758
2.93616
2.73598
2.53724
2.35481
2.20013
2.08875
2.02681
2.02255
2.06712
2.1281
2.1569
2.11607
1.99121
1.78989
1.53411
1.24756
0.95596
0.668694
0.458941
0.330639
2.49286
2.7389
2.96742
3.13327
3.24066
3.29189
3.2864
3.22731
3.1235
2.98599
2.8256
2.65393
2.481
2.32258
2.19042
2.10081
2.05875
2.06907
2.11761
2.17328
2.19481
2.15114
2.03179
1.8424
1.60254
1.3322
1.0531
0.771854
0.543911
0.388156
2.15576
2.36882
2.60417
2.79411
2.93208
3.01504
3.04125
3.01623
2.9455
2.83998
2.70987
2.56625
2.41866
2.28371
2.17374
2.10558
2.08304
2.10674
2.15834
2.20814
2.2216
2.17416
2.05702
1.87688
1.65132
1.39727
1.1331
0.863492
0.630507
0.457185
1.80273
1.99566
2.24368
2.45885
2.62691
2.73616
2.78862
2.79472
2.75673
2.68354
2.58401
2.4683
2.34612
2.23415
2.14599
2.09882
2.09497
2.13091
2.185
2.22913
2.23465
2.18152
2.06545
1.89436
1.68226
1.44461
1.1964
0.9416
0.712424
0.529806
1.46307
1.64148
1.9002
2.13726
2.33073
2.45859
2.53545
2.56995
2.56294
2.51911
2.44815
2.36067
2.26323
2.17372
2.10663
2.07958
2.09307
2.13984
2.19578
2.23525
2.23268
2.17477
2.0597
1.89555
1.69772
1.47656
1.24465
1.00587
0.786661
0.601224
1.22313
1.37245
1.61127
1.8493
2.05411
2.19464
2.29394
2.35329
2.37298
2.35621
2.31052
2.2463
2.17165
2.10369
2.05653
2.04823
2.07721
2.13317
2.19087
2.22621
2.21755
2.15697
2.04351
1.88655
1.70019
1.49547
1.27974
1.0573
0.851051
0.669006
1.06345
1.17655
1.3894
1.62091
1.81684
1.958
2.07185
2.14936
2.1902
2.19622
2.17173
2.12776
2.07371
2.02564
1.9971
2.00561
2.0479
2.11131
2.1702
2.20212
2.18938
2.12794
2.01793
1.86912
1.69425
1.50409
1.30373
1.09806
0.9059
0.730846
0.963352
1.03042
1.21294
1.43466
1.62678
1.7675
1.87971
1.96419
2.01876
2.04042
2.03389
2.00773
1.97182
1.94156
1.92976
1.95278
2.00584
2.07489
2.1345
2.16382
2.14893
2.08833
1.9843
1.84457
1.68154
1.50375
1.31868
1.13095
0.952289
0.785774
0.916616
0.927015
1.0703
1.27428
1.46542
1.61289
1.7243
1.80599
1.86287
1.89376
1.90046
1.889
1.86844
1.85352
1.85596
1.89092
1.95209
2.02504
2.08479
2.11247
2.09728
2.03954
1.9429
1.81374
1.66293
1.49786
1.32741
1.1567
0.99104
0.833659
0.944357
0.87515
0.959069
1.13041
1.31843
1.4797
1.59638
1.67628
1.72966
1.76142
1.7753
1.77446
1.76598
1.76359
1.77725
1.8214
1.888
1.9631
2.02251
2.04953
2.03566
1.9826
1.89445
1.7773
1.63919
1.4875
1.33284
1.17694
1.02318
0.874823
1.04662
0.906318
0.908064
1.02633
1.18929
1.3586
1.4855
1.56642
1.61758
1.64776
1.66269
1.66706
1.66696
1.67359
1.69548
1.74583
1.81525
1.8908
1.94952
1.97678
1.96573
1.91898
1.84051
1.7364
1.61132
1.47459
1.33495
1.19259
1.04955
0.909653
1.2252
1.02729
0.932607
0.97217
1.09558
1.25005
1.38418
1.47018
1.52187
1.55112
1.56545
1.57012
1.57378
1.58571
1.61265
1.66614
1.73594
1.81035
1.86802
1.89636
1.88936
1.8502
1.78239
1.69125
1.58065
1.46026
1.33441
1.20436
1.07088
0.938682
1.48063
1.24926
1.06851
0.996753
1.049
1.16272
1.29045
1.38301
1.43827
1.46817
1.48226
1.48614
1.48926
1.50239
1.53106
1.58469
1.65261
1.72446
1.78078
1.81076
1.80872
1.77804
1.72172
1.64399
1.5503
1.44531
1.33236
1.21307
1.08788
0.962431
1.80775
1.56204
1.32538
1.14205
1.07681
1.12001
1.2144
1.30526
1.36425
1.39628
1.41095
1.41444
1.41626
1.42645
1.45353
1.50449
1.56852
1.63657
1.69119
1.72306
1.72673
1.70523
1.66099
1.59874
1.52137
1.43084
1.32956
1.21949
1.10121
0.981345
2.19973
1.94801
1.68422
1.41881
1.22466
1.15331
1.17678
1.24419
1.30083
1.3344
1.35018
1.35387
1.35489
1.36176
1.38396
1.42974
1.48819
1.5514
1.60405
1.63794
1.64792
1.63673
1.60601
1.55805
1.49596
1.41832
1.32706
1.22453
1.1116
0.995822
2.65334
2.39672
2.11866
1.80571
1.50443
1.29686
1.21287
1.21803
1.25512
1.28455
1.30028
1.30441
1.30541
1.31037
1.32862
1.36737
1.41913
1.47661
1.52761
1.56413
1.58138
1.57955
1.56052
1.52614
1.47704
1.40997
1.32622
1.22945
1.1201
1.00681
3.16809
2.9049
2.61399
2.27181
1.89788
1.5647
1.34908
1.25394
1.24101
1.2539
1.26499
1.26873
1.27056
1.2756
1.29305
1.32757
1.3744
1.42685
1.47535
1.51298
1.53516
1.54096
1.53235
1.5099
1.46903
1.40873
1.33066
1.23695
1.12868
1.01601
3.7519
3.47993
3.17239
2.8041
2.37976
1.94901
1.6003
1.38018
1.28445
1.25749
1.255
1.2559
1.2597
1.26833
1.29004
1.32593
1.37145
1.42049
1.46591
1.50214
1.52631
1.53748
1.53672
1.52189
1.48772
1.43123
1.35237
1.25455
1.14196
1.02561
4.43116
4.14719
3.81766
3.41883
2.95098
2.44647
1.98215
1.62996
1.42427
1.33112
1.29907
1.29311
1.30142
1.32028
1.35583
1.40274
1.45324
1.50211
1.54425
1.57659
1.59793
1.60786
1.60701
1.59131
1.55588
1.49658
1.4107
1.30036
1.17142
1.04188
5.27027
4.9714
4.61517
4.18115
3.67084
3.10694
2.54879
2.07163
1.74278
1.5609
1.48239
1.46429
1.48531
1.53059
1.60089
1.67789
1.74554
1.79993
1.83625
1.85546
1.8599
1.851
1.82927
1.79273
1.73692
1.65619
1.54561
1.40644
1.24358
1.08147
6.42512
6.11301
5.73241
5.26826
4.72596
4.12387
3.50241
2.92615
2.48294
2.20707
2.07786
2.05698
2.1212
2.24073
2.40258
2.55643
2.66452
2.72515
2.73781
2.70738
2.64412
2.55809
2.45634
2.34185
2.21161
2.05903
1.87642
1.66295
1.422
1.18549
8.28858
7.98061
7.60473
7.15367
6.63882
6.07376
5.47966
4.90014
4.43006
4.13445
4.02709
4.09934
4.33677
4.69036
5.10942
5.45977
5.65045
5.69087
5.58524
5.35995
5.05116
4.6951
4.32009
3.94241
3.56556
3.18399
2.78554
2.36374
1.91675
1.48734
11.9348
11.7016
11.4352
11.1396
10.845
10.5638
10.287
10.0337
9.87099
9.88529
10.1427
10.6812
11.4865
12.477
13.4992
14.2558
14.5813
14.5054
14.0318
13.2453
12.2379
11.1139
9.95381
8.80719
7.69845
6.63227
5.59457
4.56352
3.52262
2.5377
20.1888
20.157
20.2004
20.3381
20.6745
21.2058
21.857
22.5361
23.2589
24.1731
25.3744
26.9288
28.7598
30.7195
32.4802
33.6503
34.0866
33.7978
32.7535
31.1116
29.0085
26.6302
24.1251
21.5767
19.0306
16.5228
14.0583
11.5925
9.08298
6.65337
35.3095
35.4557
36.19
37.3125
38.9151
40.7113
42.4086
43.9837
45.3603
46.9639
48.8811
51.014
53.1111
55.0317
56.3193
56.8491
56.7941
56.0685
54.6703
52.7267
50.3597
47.7244
44.9255
41.9912
38.8795
35.581
32.0884
28.3462
24.28
20.0995
42.8422
43.1713
44.8183
46.8461
48.5927
49.7831
50.5399
51.163
51.8678
52.9779
54.383
55.6925
56.5073
56.8942
56.3727
55.3056
54.3282
53.171
51.9079
50.58
49.3071
48.1396
47.1001
46.1543
45.1762
44.1063
42.8875
41.5656
40.0964
38.4148
9.29487
11.876
12.985
13.6937
13.9992
13.9508
13.6221
13.0844
12.3909
11.5923
10.7204
9.82034
8.90952
8.04215
7.24347
6.56882
6.05393
5.82188
5.9151
6.14188
6.16995
5.80596
5.03114
3.95542
2.76207
1.64191
0.769653
0.150359
0.55463
0.577317
5.46473
6.18084
6.5475
6.80123
6.90213
6.84944
6.66767
6.38715
6.03545
5.63633
5.21149
4.77802
4.35343
3.95248
3.59942
3.3148
3.13302
3.12294
3.32237
3.59901
3.74042
3.63215
3.2796
2.75088
2.12054
1.45283
0.841969
0.406079
0.353375
0.261206
4.93627
5.37398
5.62024
5.75459
5.78109
5.70687
5.5466
5.31587
5.03033
4.70645
4.36131
4.00931
3.66548
3.34439
3.06608
2.8528
2.73064
2.75593
2.95563
3.21987
3.37666
3.32764
3.08095
2.67515
2.15741
1.59009
1.03548
0.573937
0.403889
0.313664
4.65354
4.97227
5.18011
5.2923
5.31368
5.25248
5.11867
4.92372
4.67889
4.39725
4.09361
3.78146
3.47484
3.19082
2.949
2.77141
2.68039
2.72376
2.91063
3.14498
3.29113
3.25957
3.05396
2.70127
2.24985
1.73777
1.21539
0.733826
0.459847
0.322983
4.37199
4.59604
4.78626
4.9071
4.95071
4.92167
4.82293
4.66485
4.45747
4.21268
3.94397
3.66426
3.38869
3.13515
2.92352
2.77705
2.71501
2.77502
2.94974
3.15536
3.27349
3.24031
3.05058
2.73399
2.32662
1.8587
1.3691
0.888787
0.551906
0.365047
4.03289
4.17584
4.35884
4.50169
4.58134
4.5942
4.53774
4.42012
4.25148
4.04388
3.8103
3.56348
3.31876
3.09573
2.91487
2.80046
2.76887
2.84569
3.00894
3.18294
3.27311
3.22688
3.04311
2.74943
2.37666
1.94794
1.49278
1.03097
0.663863
0.434214
3.65262
3.72225
3.89572
4.06256
4.18335
4.24092
4.23122
4.15665
4.02879
3.86029
3.66372
3.45189
3.23958
3.0489
2.9009
2.82067
2.82129
2.91463
3.06707
3.21048
3.2705
3.20823
3.02516
2.7453
2.40174
2.00864
1.58824
1.1538
0.780398
0.520118
3.24045
3.24987
3.41101
3.59883
3.75927
3.86152
3.89724
3.8679
3.78283
3.6547
3.49654
3.32138
3.14414
2.98753
2.87445
2.83063
2.86372
2.97273
3.11454
3.22901
3.26004
3.18095
2.99594
2.72762
2.40447
2.0448
1.65854
1.2552
0.891437
0.613336
2.80023
2.77094
2.92329
3.12793
3.32252
3.46525
3.54303
3.55743
3.51547
3.42822
3.3094
3.17183
3.03128
2.91047
2.83377
2.82755
2.8925
3.01498
3.14603
3.23531
3.23835
3.14365
2.95621
2.69834
2.39389
2.06195
1.70734
1.33613
0.99018
0.706313
2.35258
2.30625
2.45575
2.67205
2.89253
3.06743
3.18157
3.23417
3.23325
3.18596
3.10607
3.00611
2.9026
2.81893
2.77931
2.81069
2.90518
3.03801
3.15851
3.22431
3.20364
3.09535
2.90719
2.65978
2.37311
2.06287
1.73849
1.39999
1.07461
0.792434
1.98528
1.91511
2.04995
2.26623
2.49498
2.68755
2.82775
2.91123
2.94467
2.93464
2.89185
2.82835
2.76129
2.71474
2.71209
2.77973
2.90153
3.0425
3.15158
3.19523
3.155
3.03648
2.85041
2.61396
2.34442
2.05518
1.75697
1.4493
1.1442
0.869045
1.69928
1.5968
1.70687
1.913
2.14209
2.34397
2.49884
2.60139
2.66135
2.68195
2.67269
2.64326
2.61105
2.60078
2.63261
2.73433
2.87806
3.02283
3.12179
3.14679
3.09211
2.96773
2.78698
2.56232
2.30986
2.04152
1.7694
1.48506
1.19937
0.934384
1.49196
1.35127
1.42647
1.61189
1.83386
2.03875
2.20215
2.31865
2.39499
2.43725
2.45489
2.45573
2.45591
2.47856
2.54233
2.67435
2.83495
2.98054
3.06973
3.07958
3.01557
2.88988
2.71664
2.50598
2.27138
2.02526
1.7745
1.50953
1.24122
0.987708
1.36704
1.18493
1.2126
1.36366
1.56901
1.77132
1.93914
2.06417
2.1523
2.20973
2.24598
2.27094
2.29877
2.35018
2.44294
2.60005
2.77219
2.91632
2.99596
2.99495
2.92642
2.80374
2.64076
2.4465
2.23144
2.00767
1.77237
1.52422
1.27116
1.0294
1.34296
1.11789
1.07827
1.17691
1.35063
1.54161
1.70937
1.83914
1.93488
2.00305
2.05281
2.09404
2.14351
2.21866
2.33595
2.51217
2.69066
2.83161
2.90279
2.89545
2.82685
2.71116
2.56151
2.38648
2.19451
1.98831
1.76603
1.53114
1.29092
1.06045
1.40794
1.16173
1.04608
1.06862
1.18975
1.35386
1.5135
1.64386
1.74381
1.8189
1.87818
1.93036
1.99426
2.08728
2.22355
2.41263
2.59298
2.7296
2.79428
2.78467
2.72021
2.61542
2.48262
2.3312
2.16017
1.96775
1.75653
1.53131
1.3021
1.08216
1.56634
1.3076
1.1311
1.0611
1.10663
1.22005
1.35655
1.48009
1.58005
1.65858
1.72388
1.78392
1.85594
1.96017
2.10927
2.30521
2.48404
2.6158
2.67653
2.6685
2.61231
2.52247
2.41234
2.28344
2.12813
1.94751
1.74524
1.52789
1.30668
1.09596
1.83721
1.56807
1.34614
1.18815
1.12695
1.16261
1.25128
1.35377
1.44643
1.52402
1.59201
1.65706
1.735
1.84359
1.99926
2.19694
2.37225
2.49937
2.55909
2.557
2.51412
2.44577
2.35689
2.24413
2.10112
1.92955
1.73382
1.5222
1.30628
1.10337
2.22336
1.94011
1.68435
1.45405
1.28444
1.20877
1.21845
1.27762
1.34969
1.41942
1.48625
1.55387
1.63635
1.74824
1.905
2.10065
2.27244
2.39638
2.45847
2.46987
2.44468
2.39365
2.32023
2.21783
2.08268
1.91657
1.72436
1.51598
1.30358
1.10609
2.72173
2.4186
2.13157
1.84541
1.58155
1.38588
1.28676
1.2695
1.30322
1.35395
1.41433
1.48234
1.57048
1.68938
1.84938
2.0408
2.21235
2.33799
2.40817
2.43052
2.41819
2.37876
2.3111
2.21164
2.07777
1.91212
1.71963
1.51159
1.30038
1.10596
3.33657
3.00575
2.68279
2.34722
2.00753
1.70208
1.48134
1.36285
1.32898
1.34527
1.39345
1.46148
1.55858
1.68903
1.86545
2.06468
2.2414
2.3698
2.44459
2.47353
2.46848
2.4326
2.36572
2.26414
2.12036
1.93846
1.73182
1.51472
1.29957
1.10561
4.08792
3.72119
3.35449
2.9676
2.56244
2.16524
1.82878
1.59542
1.47336
1.43764
1.46314
1.53271
1.64775
1.80778
2.02014
2.24729
2.4389
2.57432
2.65177
2.67956
2.66754
2.61794
2.53277
2.41007
2.24434
2.03597
1.79523
1.5472
1.31329
1.11061
5.02818
4.61846
4.20143
3.75973
3.29407
2.82205
2.38854
2.04529
1.82554
1.72676
1.7242
1.80386
1.95881
2.18012
2.47449
2.76702
2.99411
3.14404
3.21749
3.22544
3.17486
3.07393
2.93024
2.74674
2.52168
2.25639
1.95931
1.65551
1.37103
1.13646
6.27963
5.82444
5.35793
4.86628
4.35172
3.82783
3.32962
2.90576
2.60603
2.45477
2.44141
2.56614
2.81868
3.18011
3.65215
4.0851
4.38634
4.55654
4.60248
4.53453
4.36933
4.12874
3.83473
3.50232
3.13698
2.74296
2.32826
1.9163
1.53459
1.22593
8.12013
7.63476
7.14166
6.63072
6.10759
5.58683
5.09611
4.67519
4.38054
4.25871
4.32862
4.61868
5.12188
5.80672
6.65058
7.35924
7.79015
7.96966
7.90545
7.61996
7.15885
6.57394
5.92
5.24011
4.55324
3.86934
3.19439
2.54712
1.95579
1.47346
11.2074
10.7508
10.2997
9.85567
9.43208
9.05303
8.74546
8.53873
8.48094
8.64034
9.06612
9.81764
10.8906
12.2244
13.7267
14.8703
15.4664
15.5936
15.2389
14.4761
13.3931
12.0954
10.697
9.28994
7.92058
6.61195
5.36786
4.19473
3.11556
2.21797
17.1026
16.7732
16.4785
16.2642
16.1506
16.1894
16.4005
16.7861
17.3729
18.2258
19.4204
21.0301
23.0314
25.2917
27.5783
29.117
29.7831
29.7101
28.872
27.408
25.4438
23.1392
20.6477
18.1104
15.6077
13.1876
10.8761
8.65193
6.52379
4.64815
28.1883
28.1938
28.2978
28.5392
29.0133
29.809
30.8371
32.0603
33.4866
35.2078
37.2982
39.7932
42.6039
45.4343
47.8303
48.9419
49.1556
48.5513
47.2125
45.2548
42.8092
40.0114
36.9568
33.711
30.2999
26.757
23.1838
19.5459
15.8197
12.2521
43.1941
43.2646
44.2345
45.6596
47.264
48.7686
50.2094
51.6671
53.2471
55.1434
57.3794
59.7874
62.0975
63.737
64.1338
62.8829
61.5664
59.9324
58.2272
56.3905
54.5607
52.7938
51.0664
49.2384
47.1514
44.6895
41.6218
38.0367
33.951
29.6154
47.3465
48.0505
49.8205
51.9443
53.8437
55.2424
56.1768
56.9419
57.8264
59.0359
60.4539
61.6878
62.3364
62.1356
60.6273
57.8162
55.5839
53.4472
51.6923
50.2401
49.2099
48.5728
48.2692
48.1342
47.9776
47.6582
47.0929
46.2967
45.2568
44.0287
12.7869
16.1203
17.3785
18.056
18.3607
18.2692
17.8381
17.1456
16.2524
15.2195
14.0801
12.8925
11.6714
10.4969
9.40492
8.49495
7.87633
7.94968
8.83148
9.87997
10.2643
9.72463
8.39195
6.55762
4.51991
2.58895
1.10029
0.148218
0.131079
0.599188
7.28896
8.11012
8.45917
8.63916
8.70311
8.61765
8.38602
8.03668
7.60054
7.10318
6.56956
6.017
5.47196
4.94888
4.48939
4.12082
3.93215
4.13767
4.81301
5.55223
5.88461
5.69781
5.1119
4.27888
3.31117
2.24716
1.24109
0.482859
0.294895
0.268119
6.63741
7.06455
7.27214
7.36254
7.34934
7.23257
7.0195
6.72187
6.35782
5.94417
5.5004
5.0406
4.58823
4.16086
3.79275
3.51292
3.38899
3.59674
4.17848
4.81096
5.13063
5.03604
4.62201
4.016
3.25272
2.37744
1.50089
0.712344
0.391583
0.293911
6.36306
6.61185
6.78489
6.87157
6.86337
6.76222
6.5754
6.31193
5.98632
5.6125
5.20806
4.78588
4.37006
3.98228
3.65585
3.41963
3.33564
3.55288
4.06577
4.60638
4.89206
4.82178
4.48172
3.954
3.29182
2.52483
1.72216
0.928398
0.486819
0.312929
6.08657
6.2146
6.37595
6.48556
6.51317
6.45226
6.30281
6.07546
5.78479
5.44462
5.0715
4.67977
4.29419
3.93829
3.64656
3.45083
3.41059
3.64556
4.1116
4.5672
4.7962
4.7193
4.40545
3.92074
3.32602
2.63748
1.8988
1.13245
0.609474
0.365134
5.72941
5.76672
5.9214
6.06649
6.14373
6.13619
6.03424
5.84942
5.59797
5.29467
4.95633
4.59704
4.24359
3.92098
3.6669
3.51637
3.52737
3.78533
4.20757
4.58931
4.7512
4.65116
4.34167
3.8835
3.33185
2.70991
2.03317
1.31329
0.752891
0.445388
5.29977
5.26319
5.40903
5.58791
5.71876
5.76708
5.7203
5.58456
5.37872
5.11833
4.82116
4.4987
4.18144
3.89745
3.68718
3.58956
3.65792
3.94055
4.32153
4.62631
4.72358
4.59163
4.27698
3.83615
3.31757
2.74904
2.13056
1.46548
0.90155
0.54636
4.81648
4.71292
4.84812
5.05445
5.23516
5.33835
5.35014
5.26953
5.11457
4.90199
4.65156
4.37326
4.09667
3.85745
3.6977
3.66037
3.79076
4.09483
4.43433
4.66524
4.69803
4.53077
4.20753
3.77917
3.2883
2.76069
2.19697
1.5892
1.04281
0.657166
4.29404
4.1262
4.25459
4.48272
4.7058
4.86071
4.92895
4.90615
4.80571
4.64533
4.44637
4.21768
3.98772
3.79858
3.69591
3.72555
3.91854
4.23743
4.53351
4.69419
4.66579
4.46456
4.13281
3.71503
3.24831
2.75484
2.2399
1.68944
1.16943
0.768164
3.74578
3.52933
3.65026
3.89628
4.15176
4.35117
4.47187
4.50359
4.45935
4.35366
4.20934
4.03422
3.85652
3.72256
3.68217
3.78356
4.03519
4.35969
4.60961
4.70434
4.62114
4.39101
4.05346
3.6464
3.20219
2.74083
2.27062
1.76738
1.27651
0.871901
3.21327
2.98053
3.08479
3.32783
3.60109
3.83314
3.99819
4.07773
4.08696
4.03589
3.94719
3.82773
3.70596
3.63248
3.65772
3.8328
4.13451
4.45364
4.65523
4.68939
4.5606
4.30915
3.97053
3.57613
3.15424
2.72454
2.28872
1.82206
1.36095
0.9634
2.76056
2.49858
2.57586
2.80428
3.08165
3.33395
3.53088
3.64869
3.7029
3.70314
3.66816
3.60427
3.54099
3.53094
3.62328
3.87048
4.20962
4.51221
4.6658
4.64587
4.48274
4.21924
3.88568
3.50707
3.10925
2.70504
2.28867
1.85492
1.42343
1.03954
2.39044
2.09383
2.13521
2.33772
2.60686
2.86808
3.08466
3.23513
3.326
3.36761
3.38117
3.36965
3.36719
3.41957
3.57969
3.89278
4.25364
4.53098
4.63758
4.57478
4.38885
4.12307
3.80151
3.44277
3.06961
2.68079
2.27904
1.86926
1.46495
1.09875
2.10067
1.777
1.77395
1.93839
2.1862
2.44487
2.6716
2.84611
2.96665
3.04382
3.09657
3.13212
3.1877
3.30211
3.52777
3.89679
4.26442
4.50809
4.57216
4.47899
4.28248
4.02417
3.72217
3.38966
3.033
2.65214
2.26128
1.86761
1.48773
1.14115
1.91286
1.56773
1.50594
1.61965
1.83063
2.07326
2.3004
2.48847
2.63268
2.73907
2.82376
2.8992
3.008
3.18293
3.46874
3.87827
4.23653
4.44665
4.47511
4.36488
4.17043
3.92924
3.65636
3.34563
2.99619
2.62067
2.23729
1.85666
1.49446
1.16796
1.84108
1.49214
1.35507
1.40133
1.55581
1.76502
1.98009
2.17109
2.33002
2.4592
2.57085
2.67931
2.83452
3.06691
3.40507
3.83876
4.177
4.35487
4.3582
4.24461
4.06521
3.85501
3.60721
3.30716
2.96095
2.58784
2.20895
1.83825
1.48977
1.18143
1.89074
1.54934
1.3563
1.30822
1.38304
1.5369
1.72201
1.90353
2.06716
2.21126
2.34512
2.48318
2.67643
2.96059
3.34233
3.78526
4.09843
4.24885
4.24183
4.13991
3.99395
3.80717
3.57134
3.27497
2.92899
2.5555
2.17843
1.81474
1.47771
1.18346
2.06183
1.72521
1.489
1.35788
1.33595
1.41167
1.54279
1.69756
1.85396
2.00413
2.15492
2.31888
2.5486
2.87503
3.29256
3.73481
4.02463
4.1581
4.15967
4.09291
3.96521
3.78507
3.55144
3.25325
2.90329
2.52653
2.14856
1.78893
1.46071
1.17866
2.38911
2.04447
1.76957
1.56243
1.43827
1.40566
1.46413
1.56962
1.70344
1.84972
2.01206
2.20127
2.47073
2.82906
3.28007
3.72005
3.99901
4.13566
4.17345
4.12088
3.99114
3.82006
3.56558
3.24899
2.88914
2.50553
2.12322
1.76429
1.44179
1.16958
2.88537
2.51256
2.19529
1.92034
1.6996
1.55707
1.50837
1.5417
1.63584
1.76767
1.93804
2.1542
2.46078
2.86759
3.35391
3.80277
4.10487
4.26489
4.31478
4.2527
4.13052
3.9501
3.66976
3.30875
2.90762
2.49997
2.10794
1.74525
1.4245
1.15889
3.55166
3.13653
2.76955
2.4308
2.12477
1.87561
1.7147
1.65348
1.68462
1.78971
1.96992
2.22166
2.58767
3.0617
3.61897
4.11247
4.45111
4.63071
4.66615
4.58929
4.46699
4.23555
3.89973
3.48411
3.02091
2.5515
2.11955
1.73864
1.41357
1.1504
4.41421
3.9454
3.52111
3.11921
2.73858
2.39702
2.13025
1.97041
1.92834
2.00043
2.19237
2.4967
2.95471
3.54469
4.23396
4.82391
5.22301
5.40589
5.41416
5.32948
5.14438
4.80231
4.35353
3.83871
3.28954
2.73936
2.22331
1.78073
1.42385
1.14984
5.54363
5.01517
4.53104
4.06969
3.62735
3.21546
2.86643
2.6235
2.51966
2.56774
2.79498
3.19665
3.80979
4.60097
5.52982
6.28855
6.78765
6.9524
6.94671
6.81618
6.44584
5.89255
5.23375
4.53299
3.82739
3.14449
2.50664
1.95774
1.51428
1.18969
7.1013
6.51948
5.98658
5.48346
5.00614
4.56287
4.18181
3.90994
3.79646
3.88043
4.21461
4.81176
5.70661
6.8405
8.17938
9.1941
9.84055
10.0067
10.0035
9.61716
8.90469
7.97356
6.9469
5.91176
4.91729
3.9875
3.13441
2.39193
1.78532
1.34499
9.44552
8.84062
8.29535
7.79722
7.34499
6.94935
6.63857
6.46243
6.47747
6.75676
7.36427
8.34436
9.7292
11.4116
13.3623
14.6731
15.4979
15.7472
15.4836
14.6822
13.4281
11.8908
10.2687
8.68058
7.17969
5.80006
4.54167
3.42515
2.4867
1.78177
13.3234
12.7848
12.2913
11.8866
11.5732
11.3707
11.31
11.452
11.8572
12.5946
13.7336
15.347
17.4589
19.8759
22.5162
24.0067
24.8714
24.9876
24.3294
23.0087
21.1136
18.8261
16.4402
14.0879
11.8282
9.72004
7.75841
5.94847
4.33674
3.05632
19.9747
19.6604
19.4047
19.2164
19.1967
19.3835
19.8084
20.5216
21.555
22.9691
24.8166
27.1861
30.0837
33.1407
36.1521
37.0266
37.0053
36.249
35.08
33.4712
31.4923
29.1927
26.4856
23.5556
20.5419
17.5954
14.7099
11.8615
9.11438
6.74158
30.5245
30.4185
30.6208
31.0566
31.572
32.2699
33.2246
34.485
36.055
37.9962
40.3376
43.138
46.3225
49.1669
50.9672
49.1708
47.6305
45.8806
44.3417
42.7634
41.1889
39.5511
37.7704
35.7352
33.346
30.4523
27.1447
23.5278
19.6638
15.9716
42.0671
42.2769
43.2018
44.4586
45.7951
47.0813
48.3267
49.6003
51.0798
52.8367
54.8842
57.1318
59.3603
60.2248
59.5071
54.9294
51.9016
49.2963
47.4935
46.1604
45.3329
44.8647
44.5756
44.2243
43.5493
42.4012
40.6439
38.3051
35.3811
32.1462
43.7267
44.8005
46.5826
48.5713
50.3817
51.8177
52.8968
53.8367
54.8599
56.1058
57.4664
58.5983
59.1962
58.2338
55.2653
49.2506
45.5567
42.6625
40.8327
39.6798
39.2803
39.5637
40.3285
41.2785
42.1573
42.7888
43.0557
42.9521
42.542
41.9678
16.9003
20.9569
22.2821
22.8113
22.9876
22.7728
22.183
21.2936
20.1656
18.863
17.412
15.8804
14.2797
12.7229
11.2651
10.0783
9.44807
10.4464
13.1963
15.8203
16.653
15.6674
13.4219
10.539
7.38807
4.3136
1.83817
0.642551
0.130534
0.565483
9.37993
10.2429
10.5349
10.6095
10.5942
10.452
10.1613
9.73878
9.21458
8.61189
7.95866
7.26696
6.57556
5.89435
5.29624
4.80932
4.64197
5.34068
6.96327
8.43128
8.92466
8.52117
7.57829
6.38074
5.03426
3.53835
1.98803
0.61465
0.231101
0.2582
8.52683
8.88375
8.99766
9.01153
8.93756
8.7745
8.51519