/*--------------------------------*- C++ -*----------------------------------*\
| =========                 |                                                 |
| \\      /  F ield         | OpenFOAM: The Open Source CFD Toolbox           |
|  \\    /   O peration     | Version:  5.0                                   |
|   \\  /    A nd           | Web:      www.OpenFOAM.org                      |
|    \\/     M anipulation  |                                                 |
\*---------------------------------------------------------------------------*/
FoamFile
{
    version     2.0;
    format      ascii;
    class       volScalarField;
    location    "1650/air";
    object      k;
}
// * * * * * * * * * * * * * * * * * * * * * * * * * * * * * * * * * * * * * //

dimensions      [0 2 -2 0 0 0 0];

internalField   nonuniform List<scalar> 
243000
(
0.0737084
0.0825226
0.0854769
0.086261
0.0853066
0.0831077
0.0799794
0.0762106
0.0720336
0.0676855
0.0633095
0.0590095
0.0547984
0.0507748
0.0469987
0.0436178
0.0407525
0.0386128
0.0383255
0.0368793
0.0359717
0.034937
0.0332643
0.0307667
0.0289679
0.0269137
0.0247365
0.0225373
0.0190979
0.0198314
0.110833
0.124238
0.127262
0.126768
0.12405
0.119847
0.114687
0.10897
0.102953
0.0968594
0.0907939
0.0848581
0.0790787
0.0736193
0.0685826
0.0641422
0.0604254
0.0577522
0.0561581
0.0555135
0.055045
0.0541983
0.0523841
0.0493094
0.0449616
0.040152
0.0346817
0.0289237
0.0236714
0.0231959
0.128617
0.14303
0.147309
0.147151
0.14429
0.139659
0.13389
0.127431
0.120587
0.113635
0.106697
0.0999089
0.0933305
0.08717
0.081558
0.0767009
0.0727339
0.0699923
0.0684475
0.0678098
0.0673966
0.0665226
0.0645367
0.0610903
0.0562544
0.050309
0.0435828
0.0360898
0.0293482
0.0254175
0.136591
0.152057
0.157738
0.158711
0.156589
0.152418
0.146855
0.140386
0.133359
0.1261
0.118779
0.111583
0.104605
0.0981017
0.092239
0.0872615
0.0833096
0.0807006
0.079289
0.0786842
0.0782047
0.0771755
0.0749597
0.0711947
0.0659186
0.0593434
0.051811
0.0432211
0.0353554
0.0299861
0.137549
0.153072
0.161036
0.163835
0.163005
0.15984
0.154999
0.149
0.142238
0.135078
0.127743
0.120474
0.113404
0.106838
0.100973
0.0960948
0.0923415
0.0899854
0.0887529
0.0881719
0.0875706
0.0863265
0.0838597
0.079827
0.0742415
0.0672761
0.0592628
0.050061
0.0413085
0.0347501
0.133906
0.149478
0.159302
0.164043
0.164956
0.163122
0.159355
0.154144
0.147958
0.141195
0.134121
0.127032
0.120104
0.113692
0.108007
0.103391
0.0999622
0.09793
0.0968958
0.0963321
0.0955899
0.0941119
0.0913961
0.0871389
0.0813436
0.0741558
0.0658763
0.0563684
0.0469642
0.0394141
0.126597
0.142744
0.154199
0.160818
0.16353
0.163315
0.160742
0.156461
0.151084
0.144944
0.138343
0.131626
0.125015
0.11892
0.113552
0.109315
0.106293
0.104621
0.103793
0.103247
0.102366
0.100661
0.097715
0.093272
0.0873396
0.0800465
0.0716491
0.0620285
0.0522117
0.0438917
0.116557
0.133608
0.14655
0.154979
0.159515
0.160917
0.159761
0.156695
0.152163
0.146725
0.140757
0.134561
0.128401
0.122731
0.117789
0.114012
0.111446
0.110145
0.109523
0.109002
0.108
0.106096
0.102948
0.0983577
0.0923423
0.0850238
0.0766128
0.0670313
0.0569941
0.0481264
0.105081
0.122953
0.13721
0.147274
0.153558
0.156558
0.156867
0.155051
0.151614
0.147056
0.141695
0.136099
0.130484
0.125322
0.120876
0.117609
0.115523
0.114588
0.11417
0.113684
0.112588
0.110521
0.107212
0.102515
0.0964608
0.0891731
0.0808441
0.0713202
0.0612395
0.0520555
0.0943657
0.112271
0.127218
0.138436
0.146242
0.150759
0.152502
0.15199
0.149668
0.146035
0.141518
0.136542
0.131467
0.126866
0.122956
0.120222
0.118613
0.118031
0.117809
0.117374
0.116217
0.114031
0.110606
0.105846
0.0997968
0.092603
0.0843412
0.0749029
0.0649555
0.0556326
0.084903
0.101858
0.117336
0.129485
0.138247
0.144005
0.147072
0.147826
0.146645
0.143987
0.14028
0.136013
0.131582
0.127517
0.124154
0.121951
0.120804
0.120552
0.120518
0.120147
0.118967
0.116711
0.113222
0.108445
0.102459
0.095342
0.087156
0.0778306
0.0681499
0.0588199
0.0776805
0.0919073
0.10744
0.120475
0.130271
0.13696
0.140977
0.142857
0.142784
0.141103
0.13824
0.134689
0.130889
0.127416
0.124584
0.122889
0.122174
0.122226
0.122369
0.122078
0.12091
0.118635
0.115137
0.110406
0.104486
0.0974572
0.0893613
0.080166
0.0708527
0.0616258
0.0739955
0.083106
0.0976171
0.11129
0.122148
0.129874
0.134801
0.13744
0.138316
0.137573
0.135546
0.132727
0.129556
0.126654
0.124343
0.123121
0.122801
0.123124
0.123434
0.123235
0.122116
0.119874
0.116436
0.111768
0.105934
0.099008
0.0910196
0.0821433
0.0731607
0.0640772
0.075168
0.0769284
0.0883833
0.101973
0.113773
0.122615
0.128553
0.132035
0.133578
0.133599
0.132352
0.130245
0.1277
0.125342
0.123522
0.122729
0.122751
0.123317
0.123787
0.123684
0.122648
0.120489
0.117125
0.112559
0.106848
0.100044
0.0921877
0.0837732
0.0751178
0.0661999
0.0817857
0.0754686
0.0810553
0.0929448
0.105186
0.115102
0.122136
0.126551
0.128842
0.129462
0.128825
0.127366
0.125415
0.123574
0.122204
0.121788
0.122102
0.122877
0.123498
0.123497
0.122545
0.120465
0.117213
0.112792
0.107254
0.100612
0.0930214
0.0850724
0.0767464
0.0680078
0.0929698
0.0808668
0.0779731
0.0853482
0.096732
0.107363
0.115486
0.120916
0.124037
0.125317
0.125206
0.124226
0.1228
0.121435
0.120467
0.120374
0.12093
0.121878
0.122637
0.122752
0.12192
0.119974
0.116848
0.112573
0.107197
0.100751
0.0936294
0.0860896
0.0780734
0.0695149
0.107373
0.0927836
0.0819556
0.0814018
0.0893948
0.0996913
0.108635
0.11509
0.119114
0.121119
0.121582
0.121015
0.119967
0.119004
0.118389
0.11856
0.119309
0.120395
0.121276
0.121518
0.120825
0.119047
0.116095
0.111994
0.1068
0.100653
0.0940039
0.0868466
0.0791194
0.0707334
0.12328
0.108504
0.093322
0.083948
0.0850907
0.0929084
0.101837
0.109113
0.114049
0.116834
0.117914
0.117816
0.117075
0.116379
0.116045
0.116421
0.117315
0.118505
0.119493
0.119866
0.119328
0.117733
0.115007
0.111108
0.10613
0.100424
0.0941838
0.0873708
0.0799059
0.0716778
0.139329
0.125333
0.109259
0.0939771
0.0862973
0.0885904
0.0957443
0.103192
0.108884
0.112452
0.114185
0.114592
0.114209
0.113685
0.113522
0.114036
0.115028
0.11629
0.117367
0.117871
0.117497
0.116105
0.113618
0.109968
0.105357
0.100072
0.0941866
0.0876864
0.0804551
0.0723676
0.155798
0.142541
0.126917
0.109382
0.0945126
0.0886542
0.091534
0.0978141
0.10378
0.10801
0.110393
0.111326
0.11134
0.11104
0.110951
0.111502
0.112535
0.113833
0.114979
0.115609
0.115407
0.11423
0.111996
0.108687
0.104512
0.099618
0.0940609
0.0878294
0.0807961
0.0728227
0.172549
0.159765
0.144786
0.127065
0.108379
0.094734
0.0907312
0.0938393
0.099091
0.103632
0.106571
0.108024
0.108449
0.10842
0.108452
0.108955
0.10994
0.111232
0.112421
0.113163
0.113131
0.11218
0.110261
0.107385
0.103622
0.0990937
0.093839
0.0878328
0.0809629
0.0730724
0.189412
0.176975
0.162437
0.145091
0.125149
0.106209
0.0946412
0.0923488
0.0954084
0.0995699
0.102815
0.104716
0.105548
0.105815
0.106007
0.106522
0.10745
0.10867
0.109855
0.110684
0.110837
0.110156
0.108577
0.106097
0.102726
0.098544
0.093567
0.0877587
0.0810047
0.073155
0.20644
0.194067
0.179706
0.162682
0.142612
0.121037
0.103242
0.0943475
0.0934775
0.096226
0.0993083
0.101486
0.102674
0.103243
0.103625
0.104202
0.105108
0.106275
0.107453
0.10835
0.10867
0.108236
0.106974
0.104863
0.101872
0.0980277
0.0933139
0.0876717
0.0809876
0.0731256
0.223168
0.21071
0.196367
0.179545
0.159672
0.137136
0.115321
0.100118
0.0940501
0.0941413
0.096368
0.0985085
0.0999361
0.100779
0.101371
0.102051
0.10297
0.104107
0.105276
0.106228
0.106695
0.106484
0.105518
0.103751
0.10113
0.0976212
0.0931631
0.0876637
0.081
0.0730659
0.239035
0.226559
0.212267
0.195599
0.176007
0.153361
0.129482
0.109355
0.0976872
0.0940077
0.094527
0.0961687
0.0976328
0.0986866
0.0995023
0.100329
0.101299
0.102426
0.103581
0.104565
0.105145
0.105122
0.104427
0.102969
0.100668
0.0974614
0.0932551
0.0879
0.0812194
0.0731091
0.254562
0.242092
0.227873
0.211405
0.192171
0.169838
0.145231
0.121914
0.105165
0.0970217
0.0949291
0.0954938
0.0967429
0.0979466
0.0990264
0.100072
0.101148
0.102279
0.103389
0.104332
0.104922
0.104998
0.104447
0.103197
0.101145
0.0981953
0.094193
0.0889094
0.0820664
0.0735683
0.271217
0.258962
0.245001
0.228904
0.210236
0.188633
0.164333
0.139595
0.119067
0.106432
0.101104
0.100068
0.100889
0.102301
0.103825
0.105243
0.106481
0.107571
0.108483
0.109141
0.109439
0.109279
0.108562
0.107216
0.105129
0.102165
0.0981163
0.0926269
0.0853072
0.0759339
0.29312
0.281513
0.268315
0.253296
0.236197
0.216666
0.19456
0.170991
0.149307
0.133765
0.125697
0.123272
0.123954
0.126034
0.128415
0.130393
0.131677
0.132344
0.132437
0.132012
0.131088
0.129707
0.127856
0.125475
0.122397
0.118455
0.113426
0.106822
0.0979688
0.0862981
0.337508
0.327991
0.317928
0.307266
0.295763
0.282871
0.267954
0.251223
0.234154
0.220687
0.213223
0.211292
0.212787
0.216204
0.219591
0.221836
0.222424
0.221711
0.21985
0.21704
0.213481
0.209406
0.204931
0.199983
0.193977
0.186845
0.178893
0.16929
0.157024
0.141357
0.504055
0.502126
0.502619
0.502918
0.50239
0.500462
0.496516
0.490815
0.48191
0.473729
0.468236
0.465525
0.464647
0.46644
0.468285
0.469513
0.469082
0.468585
0.467831
0.467235
0.466652
0.466292
0.466009
0.465553
0.461791
0.455452
0.44982
0.441927
0.430886
0.416369
0.108227
0.125477
0.131864
0.133946
0.132968
0.129806
0.125121
0.119442
0.113126
0.106483
0.0996842
0.0929517
0.0863734
0.0802123
0.0745901
0.0698001
0.066013
0.0636254
0.0626843
0.0626181
0.0621157
0.0600424
0.0557499
0.0491614
0.0407915
0.0314495
0.024529
0.022731
0.0213495
0.0208387
0.168508
0.19315
0.198588
0.196189
0.189488
0.180445
0.17021
0.159497
0.148737
0.138244
0.128132
0.118583
0.109594
0.101455
0.0942755
0.0883812
0.0838641
0.0814174
0.0811433
0.0823354
0.0833897
0.0827717
0.0791962
0.0722007
0.0623546
0.0506139
0.0385702
0.0311782
0.0334959
0.0280471
0.198741
0.227048
0.236269
0.235741
0.22989
0.220891
0.210079
0.198304
0.186134
0.174027
0.162192
0.150916
0.140251
0.130625
0.12225
0.11555
0.110587
0.108071
0.107875
0.109109
0.110097
0.109257
0.105109
0.09704
0.0854827
0.0713487
0.0561323
0.0421449
0.0380642
0.0370515
0.210697
0.240721
0.252881
0.25505
0.251584
0.244459
0.234914
0.22385
0.211925
0.199692
0.187466
0.17565
0.164389
0.15424
0.145545
0.138798
0.134024
0.131796
0.131686
0.132685
0.133191
0.131742
0.126917
0.118018
0.105386
0.0898094
0.072615
0.0547866
0.0437875
0.0386478
0.210082
0.23826
0.253833
0.26045
0.260402
0.25607
0.248691
0.239269
0.228498
0.217013
0.205237
0.19367
0.18256
0.172588
0.164208
0.15796
0.153809
0.152109
0.152131
0.152802
0.152691
0.150519
0.145034
0.13556
0.122346
0.106055
0.0878741
0.0681407
0.0526055
0.0431858
0.202861
0.228644
0.246613
0.256477
0.260079
0.25893
0.254138
0.246904
0.237824
0.227652
0.2169
0.206141
0.195722
0.186433
0.178818
0.173456
0.170217
0.169191
0.169364
0.169692
0.168927
0.166022
0.159936
0.150081
0.136634
0.120141
0.101641
0.0812122
0.0631671
0.0503862
0.190146
0.21346
0.232882
0.245861
0.253044
0.255315
0.253613
0.248589
0.241337
0.232882
0.223596
0.214062
0.204722
0.196487
0.189954
0.185746
0.183606
0.183323
0.183662
0.18367
0.182281
0.178684
0.172072
0.161972
0.148534
0.132196
0.113835
0.0934359
0.0742439
0.0590868
0.172517
0.19341
0.214414
0.230455
0.241154
0.246515
0.247582
0.24527
0.240534
0.233982
0.226214
0.218234
0.210245
0.20333
0.198087
0.195212
0.194281
0.194748
0.195278
0.195012
0.193072
0.188873
0.181823
0.171587
0.158322
0.14239
0.124486
0.104552
0.0851006
0.0683837
0.150681
0.170245
0.192893
0.211866
0.225849
0.23392
0.237732
0.238241
0.235992
0.231591
0.22583
0.219409
0.212878
0.207431
0.203621
0.202182
0.20248
0.203678
0.204425
0.203954
0.201567
0.196878
0.189502
0.179241
0.166275
0.150917
0.133696
0.11453
0.0953976
0.0776795
0.131551
0.148586
0.171196
0.192018
0.208518
0.219021
0.225616
0.228788
0.229041
0.226847
0.222964
0.21817
0.213205
0.209231
0.206902
0.20693
0.208398
0.210303
0.21129
0.210699
0.207984
0.202944
0.195374
0.18521
0.172662
0.158015
0.141548
0.123218
0.104725
0.086541
0.116879
0.12981
0.150844
0.172798
0.190916
0.203205
0.212267
0.217809
0.220312
0.220252
0.21816
0.214991
0.21156
0.209089
0.208223
0.209662
0.212229
0.214796
0.216046
0.215422
0.212517
0.207281
0.199681
0.189767
0.177775
0.163778
0.148053
0.130735
0.112991
0.0947611
0.106633
0.114178
0.132293
0.154171
0.173567
0.187965
0.198765
0.206075
0.210472
0.212186
0.211828
0.210249
0.208331
0.207334
0.207843
0.210568
0.214129
0.21733
0.218857
0.218283
0.215333
0.21008
0.202664
0.193118
0.18162
0.168289
0.153382
0.137314
0.120235
0.102344
0.100884
0.102314
0.116138
0.136427
0.156501
0.172903
0.185465
0.194394
0.200058
0.203252
0.204411
0.204325
0.203843
0.20422
0.205976
0.209839
0.214277
0.218046
0.219893
0.219414
0.216583
0.211516
0.204357
0.195245
0.18433
0.171717
0.157749
0.142781
0.126423
0.108959
0.102044
0.0955659
0.103293
0.120098
0.139823
0.157996
0.1723
0.182679
0.189699
0.193991
0.196384
0.197576
0.198383
0.199968
0.202838
0.207659
0.212808
0.217094
0.219299
0.218972
0.216255
0.211341
0.204572
0.196166
0.186001
0.174217
0.161443
0.147292
0.131599
0.114592
0.109524
0.0966633
0.0965203
0.107714
0.12472
0.143461
0.159273
0.170961
0.179228
0.184756
0.188173
0.190359
0.19223
0.194826
0.198633
0.204216
0.209922
0.214667
0.21723
0.217168
0.214769
0.210255
0.203901
0.196053
0.186782
0.17608
0.164376
0.150948
0.135833
0.11926
0.123609
0.105712
0.0971182
0.100878
0.113253
0.130144
0.146556
0.159373
0.168799
0.175464
0.179979
0.183006
0.18567
0.189044
0.193576
0.199713
0.205823
0.21095
0.213869
0.214182
0.212216
0.208268
0.202545
0.195376
0.186946
0.177482
0.166575
0.153819
0.139197
0.123011
0.144671
0.123616
0.107776
0.101612
0.107107
0.119473
0.134734
0.14817
0.158572
0.16626
0.171781
0.175722
0.178997
0.182876
0.187903
0.194383
0.200746
0.206168
0.209439
0.210213
0.208782
0.205504
0.200643
0.194311
0.186945
0.178446
0.168202
0.156007
0.141779
0.12591
0.172354
0.149639
0.128868
0.113484
0.108371
0.113828
0.125242
0.137976
0.148839
0.157326
0.163723
0.168497
0.172464
0.176604
0.18189
0.18851
0.194982
0.2006
0.204215
0.20552
0.204712
0.20223
0.198312
0.193173
0.18685
0.179053
0.169381
0.157629
0.14368
0.128032
0.205939
0.182369
0.158793
0.136503
0.120745
0.115685
0.120199
0.129932
0.140166
0.148965
0.156002
0.161484
0.166084
0.170602
0.1759
0.182467
0.188917
0.194633
0.198587
0.200483
0.200393
0.198884
0.196112
0.192119
0.186677
0.179481
0.170267
0.158827
0.145019
0.12946
0.244583
0.220484
0.195221
0.168585
0.144113
0.127733
0.122236
0.125831
0.133557
0.141712
0.148939
0.154908
0.160039
0.16495
0.170447
0.176819
0.183145
0.188868
0.193194
0.195757
0.196569
0.196001
0.194274
0.191325
0.186582
0.179929
0.17106
0.15978
0.145955
0.130336
0.287215
0.262702
0.236175
0.206745
0.176272
0.149935
0.133409
0.127684
0.13034
0.136429
0.143073
0.149144
0.154647
0.159963
0.165734
0.172166
0.178519
0.184284
0.188896
0.192008
0.193598
0.193883
0.193128
0.190985
0.186912
0.180728
0.172052
0.160739
0.146707
0.130866
0.332696
0.307817
0.280162
0.248661
0.214184
0.180437
0.153581
0.13743
0.132311
0.134276
0.139288
0.144881
0.15054
0.156236
0.162398
0.169061
0.175581
0.181475
0.1863
0.189806
0.192013
0.193059
0.193113
0.19189
0.188523
0.182601
0.173775
0.162115
0.147586
0.131248
0.380098
0.354885
0.326225
0.293038
0.255769
0.216963
0.181893
0.155747
0.141538
0.137284
0.138964
0.143469
0.149009
0.155094
0.161837
0.169005
0.175863
0.181926
0.186867
0.190605
0.193225
0.194828
0.195493
0.194868
0.192103
0.186466
0.177318
0.164704
0.149143
0.131851
0.429084
0.403738
0.374389
0.340023
0.300952
0.25896
0.218137
0.18367
0.16044
0.148873
0.145872
0.148094
0.153227
0.159854
0.167597
0.175665
0.183016
0.189331
0.194305
0.198008
0.200594
0.202195
0.202815
0.202181
0.19949
0.193837
0.184164
0.170323
0.152661
0.133468
0.481136
0.456312
0.427125
0.392675
0.353239
0.31013
0.266278
0.226183
0.195547
0.176831
0.168625
0.167931
0.172593
0.180306
0.190118
0.199892
0.207985
0.214388
0.2189
0.221639
0.222885
0.222979
0.22202
0.219885
0.215886
0.209
0.197953
0.181863
0.16114
0.138208
0.54278
0.520038
0.493017
0.460966
0.424127
0.383385
0.340714
0.29967
0.265892
0.243045
0.231422
0.229343
0.235311
0.246512
0.26084
0.273989
0.283119
0.288637
0.290612
0.289465
0.285784
0.280393
0.27382
0.266202
0.257053
0.245367
0.229639
0.208571
0.181208
0.151123
0.633863
0.616491
0.595702
0.570803
0.542155
0.510352
0.47642
0.443181
0.415043
0.39603
0.387633
0.390191
0.402822
0.422207
0.444425
0.46256
0.472637
0.47574
0.47184
0.461938
0.447331
0.42965
0.410077
0.389152
0.366762
0.342145
0.313694
0.279443
0.237557
0.190292
0.80212
0.793761
0.783505
0.770762
0.75677
0.741731
0.725549
0.708795
0.694502
0.686854
0.688182
0.700678
0.722252
0.749512
0.776765
0.797098
0.807065
0.807933
0.798529
0.780708
0.755762
0.725744
0.692142
0.655421
0.615411
0.571709
0.522786
0.465762
0.397595
0.319902
1.04512
1.0435
1.04935
1.05632
1.06448
1.06971
1.06901
1.0648
1.05849
1.05704
1.06323
1.07702
1.09505
1.11526
1.13128
1.14085
1.14391
1.14059
1.12992
1.1134
1.09194
1.0668
1.0386
1.00681
0.969942
0.927049
0.876006
0.813557
0.736294
0.645864
1.14817
1.15251
1.17408
1.19637
1.21033
1.21435
1.21013
1.20273
1.19582
1.19538
1.19981
1.20565
1.20879
1.21035
1.20402
1.19396
1.18543
1.17595
1.16601
1.1562
1.1476
1.14047
1.13465
1.12929
1.12226
1.11317
1.09939
1.08031
1.05573
1.02384
0.143782
0.165062
0.1709
0.172866
0.171435
0.167341
0.161362
0.154144
0.146122
0.137675
0.129002
0.120394
0.111919
0.103963
0.0966905
0.0905847
0.0860162
0.0842506
0.0858261
0.0889312
0.0903542
0.08808
0.0814358
0.0706876
0.0567837
0.0410269
0.0253237
0.0230006
0.0215353
0.0225493
0.228363
0.25998
0.267944
0.26544
0.257062
0.245503
0.232374
0.218603
0.204669
0.190917
0.177441
0.164468
0.151933
0.140297
0.129756
0.120915
0.114358
0.11269
0.116646
0.123785
0.129515
0.130616
0.125105
0.112788
0.0949017
0.0733289
0.0508535
0.0358422
0.0339687
0.0308965
0.274388
0.310098
0.322721
0.322762
0.315453
0.303825
0.289772
0.274444
0.258472
0.242344
0.226293
0.210677
0.195542
0.181528
0.169041
0.158793
0.151418
0.149724
0.154069
0.161758
0.167985
0.169389
0.163493
0.149769
0.129315
0.103768
0.0760998
0.0515389
0.0423455
0.04119
0.300495
0.335036
0.349863
0.353047
0.348255
0.338505
0.325578
0.310733
0.294695
0.278063
0.261207
0.24461
0.228467
0.213575
0.200564
0.190187
0.183008
0.181568
0.185709
0.192773
0.198276
0.199149
0.192804
0.17852
0.157053
0.129788
0.0994236
0.0691587
0.0507121
0.0439238
0.311006
0.340929
0.358276
0.365152
0.363739
0.356915
0.346209
0.332995
0.318013
0.302011
0.285477
0.268994
0.252914
0.238193
0.225636
0.215989
0.209639
0.208629
0.212291
0.218174
0.222403
0.222329
0.215473
0.201028
0.179487
0.151919
0.120599
0.0875417
0.062509
0.0497167
0.309789
0.33446
0.353034
0.363405
0.366285
0.363029
0.35525
0.344511
0.331318
0.316759
0.301363
0.285801
0.270587
0.256831
0.245448
0.237151
0.232047
0.231551
0.234594
0.239053
0.241763
0.240484
0.233055
0.218659
0.197571
0.170565
0.13946
0.105566
0.07663
0.0587665
0.302221
0.321261
0.339195
0.352024
0.35876
0.359733
0.355875
0.34752
0.336465
0.324021
0.310415
0.296396
0.282675
0.27052
0.260861
0.254385
0.250817
0.250862
0.253237
0.256194
0.257303
0.254692
0.246635
0.232382
0.212045
0.186128
0.156001
0.122563
0.0917313
0.0700144
0.288571
0.30108
0.317996
0.332987
0.343476
0.348492
0.348476
0.343713
0.335955
0.325613
0.31379
0.301789
0.290053
0.280003
0.272506
0.268208
0.266356
0.266935
0.268648
0.270149
0.269666
0.265709
0.25701
0.242936
0.223519
0.198996
0.170418
0.138142
0.106911
0.0823541
0.266808
0.274956
0.291222
0.308256
0.322319
0.331292
0.33506
0.33407
0.329435
0.321984
0.312881
0.303007
0.293466
0.285884
0.280884
0.279011
0.278936
0.280033
0.281143
0.281318
0.279305
0.274093
0.2648
0.250952
0.23254
0.209585
0.182524
0.151878
0.121242
0.0948695
0.239528
0.244785
0.26092
0.279878
0.297214
0.309838
0.317252
0.319851
0.318573
0.314197
0.307887
0.300625
0.293725
0.288707
0.2864
0.287109
0.288737
0.290355
0.290968
0.28996
0.286578
0.280277
0.27051
0.256984
0.239483
0.217883
0.192551
0.163937
0.134318
0.106962
0.214368
0.215931
0.230821
0.25078
0.270332
0.285918
0.296562
0.302418
0.304364
0.303122
0.299739
0.295283
0.291111
0.288899
0.289381
0.292691
0.29594
0.298065
0.298298
0.296288
0.291765
0.284607
0.274568
0.261331
0.244579
0.224317
0.200782
0.174373
0.145957
0.11841
0.193077
0.18959
0.202145
0.222116
0.243187
0.261167
0.274524
0.283079
0.287918
0.289591
0.289128
0.287518
0.28619
0.286842
0.290092
0.295886
0.300702
0.303317
0.303279
0.300483
0.295086
0.287409
0.277215
0.264221
0.248237
0.229307
0.207812
0.183067
0.155941
0.128742
0.176541
0.167116
0.176133
0.194884
0.216616
0.236411
0.252044
0.263117
0.270376
0.274539
0.276726
0.277883
0.279372
0.282786
0.288745
0.296847
0.303103
0.306257
0.306033
0.302702
0.296814
0.288663
0.278464
0.265914
0.250792
0.233384
0.213597
0.190207
0.164274
0.137638
0.165907
0.150542
0.15449
0.170303
0.191448
0.212321
0.229795
0.24299
0.252437
0.25885
0.263269
0.266902
0.27101
0.277038
0.285543
0.295724
0.303297
0.307021
0.306685
0.302942
0.296624
0.288367
0.278411
0.266638
0.252567
0.236779
0.218117
0.19591
0.171028
0.145052
0.164628
0.14312
0.139719
0.15032
0.168959
0.189692
0.208359
0.223268
0.234598
0.242995
0.24945
0.255112
0.261507
0.269899
0.28069
0.292683
0.301392
0.305759
0.305459
0.301727
0.295393
0.287266
0.277812
0.266807
0.254186
0.239467
0.221617
0.200335
0.176323
0.151015
0.171628
0.147018
0.135066
0.137685
0.151218
0.169797
0.188493
0.204509
0.217346
0.227425
0.235655
0.243059
0.25127
0.261699
0.27442
0.28793
0.297638
0.302681
0.302626
0.299115
0.293181
0.28559
0.276948
0.267035
0.255621
0.241525
0.224259
0.203648
0.180305
0.155615
0.187739
0.161103
0.142591
0.135604
0.141232
0.154673
0.171426
0.187461
0.201208
0.212578
0.222277
0.231191
0.240778
0.252805
0.267037
0.281758
0.292346
0.298091
0.29853
0.295501
0.290268
0.283697
0.276262
0.267473
0.256696
0.243085
0.22619
0.206001
0.183124
0.158963
0.214827
0.186779
0.163345
0.14719
0.141473
0.147181
0.159082
0.173278
0.1869
0.198958
0.209733
0.219867
0.230638
0.243694
0.258992
0.274616
0.285992
0.292477
0.293667
0.29145
0.287312
0.282238
0.275928
0.267867
0.25758
0.244284
0.22757
0.20757
0.18495
0.161195
0.252091
0.222845
0.195947
0.172465
0.156033
0.150025
0.153975
0.163662
0.175463
0.187245
0.198541
0.209529
0.221301
0.23509
0.251003
0.267229
0.279355
0.286646
0.288878
0.287961
0.285271
0.281403
0.275816
0.268408
0.258485
0.245327
0.228588
0.208554
0.185975
0.162469
0.297626
0.267186
0.2376
0.208793
0.183359
0.16566
0.158426
0.16054
0.168365
0.178421
0.18944
0.200829
0.21345
0.227923
0.244325
0.260816
0.273757
0.282036
0.285672
0.28596
0.284436
0.281399
0.276752
0.269785
0.259902
0.246572
0.229527
0.209204
0.186436
0.162992
0.349391
0.317583
0.285563
0.25272
0.22059
0.19289
0.174143
0.166138
0.167082
0.173857
0.183654
0.19489
0.208127
0.223359
0.240448
0.257476
0.271226
0.280388
0.285103
0.286505
0.28601
0.2838
0.279744
0.273064
0.262785
0.248677
0.230864
0.209892
0.186644
0.163011
0.405607
0.372292
0.337939
0.301805
0.26478
0.229575
0.200775
0.182197
0.174577
0.175661
0.182805
0.193451
0.207113
0.223184
0.241699
0.259747
0.274413
0.284321
0.289882
0.292135
0.292236
0.290278
0.286208
0.279368
0.268584
0.253157
0.23366
0.211325
0.187086
0.162923
0.46529
0.430571
0.394198
0.355471
0.314985
0.27466
0.23836
0.210509
0.193956
0.188296
0.191301
0.200586
0.214821
0.232452
0.253099
0.272917
0.288609
0.2992
0.305327
0.307813
0.307591
0.304799
0.299582
0.291477
0.279462
0.262446
0.240552
0.215282
0.188867
0.163302
0.529212
0.493734
0.456235
0.416112
0.373829
0.33081
0.290075
0.255714
0.231685
0.21956
0.217983
0.225693
0.240877
0.261369
0.28607
0.30885
0.325734
0.336858
0.342722
0.344062
0.341601
0.335854
0.327294
0.31581
0.300615
0.280725
0.255455
0.226358
0.195279
0.166066
0.601911
0.567368
0.530746
0.491498
0.450021
0.407484
0.366236
0.329726
0.302162
0.286295
0.282121
0.289943
0.308164
0.333885
0.365423
0.392486
0.410809
0.421518
0.425201
0.42249
0.414243
0.401613
0.385643
0.366832
0.344732
0.318517
0.287296
0.251353
0.212983
0.176869
0.696138
0.665871
0.633654
0.599075
0.562496
0.525082
0.48883
0.456637
0.432322
0.418859
0.417386
0.430052
0.455128
0.489225
0.529197
0.560774
0.579628
0.588135
0.586847
0.576329
0.558073
0.533788
0.505257
0.473699
0.439161
0.401077
0.358309
0.310352
0.258005
0.207455
0.840071
0.818269
0.79469
0.769351
0.742546
0.71581
0.69069
0.669523
0.655187
0.650163
0.65717
0.678333
0.711911
0.753833
0.798897
0.830965
0.847442
0.851823
0.844013
0.825327
0.797358
0.762038
0.721032
0.675764
0.626516
0.572897
0.513782
0.447329
0.372998
0.296473
1.06345
1.0538
1.04328
1.03078
1.01688
1.0033
0.990732
0.980833
0.975859
0.978499
0.992095
1.01775
1.05346
1.09346
1.13026
1.14973
1.15642
1.15314
1.14038
1.11953
1.092
1.05897
1.0208
0.977062
0.926595
0.868097
0.80048
0.720959
0.627083
0.523812
1.3072
1.30445
1.31196
1.32053
1.3244
1.32128
1.31382
1.30541
1.29984
1.30074
1.31077
1.3283
1.34991
1.36726
1.37243
1.35891
1.34465
1.32786
1.31151
1.29496
1.28003
1.26695
1.255
1.24107
1.22173
1.19387
1.15127
1.09292
1.01625
0.924448
1.34449
1.35521
1.37753
1.39917
1.41213
1.41473
1.40729
1.39598
1.38667
1.38362
1.38578
1.38904
1.38926
1.38165
1.3606
1.32506
1.29719
1.27196
1.25333
1.24052
1.23512
1.23644
1.24387
1.25399
1.26327
1.26896
1.26754
1.25914
1.24152
1.21591
0.177846
0.202352
0.207547
0.207861
0.205409
0.200299
0.193137
0.184582
0.175088
0.165072
0.154713
0.144347
0.133994
0.124166
0.115077
0.107523
0.102509
0.103691
0.112108
0.122087
0.126853
0.124223
0.114535
0.0990144
0.0788483
0.0555731
0.032121
0.0229095
0.0215739
0.0231161
0.28605
0.322505
0.329182
0.326131
0.316568
0.303252
0.288061
0.272002
0.25556
0.239056
0.222493
0.206113
0.189753
0.174169
0.15973
0.147695
0.140249
0.144269
0.160256
0.179744
0.192613
0.194739
0.185287
0.165502
0.137228
0.102721
0.0673604
0.0394118
0.0312592
0.0318448
0.347946
0.387701
0.400329
0.400425
0.392164
0.37883
0.362551
0.344508
0.325378
0.305655
0.285533
0.265372
0.245215
0.226089
0.208756
0.194624
0.186338
0.191158
0.208683
0.229818
0.244092
0.247151
0.237473
0.215881
0.184099
0.143894
0.100638
0.0597374
0.0417922
0.0413274
0.387326
0.423294
0.439632
0.443036
0.437525
0.426179
0.410927
0.393015
0.373309
0.352441
0.330812
0.308879
0.28696
0.26628
0.248002
0.233509
0.225525
0.230658
0.24758
0.2676
0.281033
0.283852
0.274126
0.252379
0.219815
0.177721
0.130672
0.0820364
0.0529662
0.0451477
0.409949
0.440487
0.458091
0.464523
0.462668
0.454433
0.441359
0.424761
0.405729
0.385026
0.363219
0.340871
0.318559
0.297708
0.279778
0.26606
0.259093
0.264341
0.279653
0.29721
0.30865
0.310487
0.300618
0.279313
0.247354
0.205597
0.157579
0.105322
0.0674482
0.0517507
0.41815
0.439705
0.457836
0.469243
0.472226
0.467851
0.457791
0.443354
0.425985
0.406481
0.385522
0.363826
0.342203
0.322279
0.305693
0.2936
0.288139
0.293372
0.306579
0.320992
0.329801
0.33012
0.3199
0.29923
0.268595
0.228486
0.181449
0.128545
0.0848162
0.0617807
0.414982
0.430874
0.44832
0.462002
0.469063
0.469316
0.462592
0.450889
0.436095
0.418682
0.399428
0.3793
0.359268
0.341214
0.326792
0.317022
0.313414
0.31852
0.329354
0.340337
0.346212
0.344625
0.333866
0.313845
0.284882
0.247204
0.20198
0.150132
0.103675
0.0745059
0.404343
0.413351
0.429032
0.444586
0.455495
0.460008
0.457906
0.450552
0.438321
0.42299
0.406117
0.388382
0.370736
0.355355
0.343834
0.336942
0.335362
0.340211
0.348573
0.356083
0.358954
0.355274
0.343848
0.324424
0.297346
0.261982
0.219126
0.16962
0.122571
0.0887986
0.384646
0.387397
0.401602
0.418885
0.433385
0.442115
0.44463
0.441265
0.432889
0.421174
0.40738
0.392033
0.377433
0.36539
0.357397
0.353806
0.354236
0.358696
0.36461
0.368792
0.368727
0.362974
0.350846
0.332065
0.30621
0.273228
0.233342
0.187148
0.140648
0.103644
0.358097
0.354762
0.367846
0.386921
0.40467
0.417484
0.424426
0.425365
0.421163
0.413232
0.403093
0.391571
0.380134
0.371949
0.367941
0.36793
0.370181
0.374141
0.377716
0.378876
0.375993
0.368396
0.35569
0.337068
0.312442
0.281821
0.245319
0.20225
0.157266
0.118432
0.328078
0.320025
0.331513
0.351181
0.371535
0.388011
0.399155
0.404204
0.404338
0.400506
0.394428
0.38686
0.37944
0.375543
0.375842
0.379486
0.383309
0.386658
0.388106
0.386529
0.381179
0.372063
0.358733
0.340317
0.316909
0.288822
0.25512
0.21467
0.171586
0.132371
0.29959
0.285736
0.294805
0.314244
0.336347
0.355822
0.370639
0.379509
0.383652
0.384025
0.382179
0.378876
0.375933
0.376579
0.381414
0.388564
0.393687
0.396364
0.395923
0.391965
0.38463
0.374443
0.360568
0.342505
0.320464
0.294391
0.262523
0.224493
0.1835
0.14474
0.274162
0.25398
0.259721
0.277893
0.300777
0.3225
0.340292
0.352806
0.360676
0.36488
0.367173
0.368205
0.370036
0.375438
0.384823
0.395199
0.401389
0.403402
0.401292
0.395433
0.386841
0.375719
0.36169
0.344202
0.323652
0.298536
0.267914
0.23193
0.192989
0.155247
0.252553
0.227101
0.228483
0.24401
0.266395
0.289408
0.309498
0.325161
0.336421
0.344282
0.350343
0.355511
0.362112
0.372486
0.386265
0.399478
0.406485
0.407898
0.40443
0.397368
0.387822
0.376307
0.362544
0.346258
0.326439
0.301471
0.271636
0.237264
0.200201
0.163783
0.238467
0.208587
0.203795
0.214983
0.23509
0.258022
0.279522
0.297573
0.311856
0.323028
0.332507
0.341491
0.352709
0.368033
0.385925
0.401521
0.409144
0.410046
0.405739
0.397817
0.387909
0.376623
0.363913
0.348505
0.328483
0.303445
0.273996
0.240777
0.205346
0.170372
0.235255
0.202841
0.189355
0.193974
0.20936
0.230214
0.251781
0.271245
0.287852
0.301888
0.314466
0.326856
0.342391
0.362416
0.384034
0.4016
0.409659
0.410257
0.405469
0.397479
0.387822
0.377661
0.36596
0.35048
0.329984
0.304623
0.275225
0.242767
0.208667
0.175132
0.24242
0.209429
0.189708
0.184565
0.192308
0.208416
0.228002
0.24753
0.265502
0.28172
0.296992
0.312476
0.331811
0.356031
0.380909
0.400008
0.408527
0.409171
0.404725
0.397177
0.388978
0.379628
0.368059
0.352075
0.330991
0.305126
0.275461
0.243434
0.210401
0.178225
0.260791
0.227629
0.203024
0.189135
0.187021
0.195545
0.210392
0.228002
0.246024
0.263491
0.280883
0.299092
0.321819
0.349424
0.377097
0.39746
0.406591
0.407853
0.404436
0.398765
0.391363
0.38233
0.370208
0.353475
0.33163
0.305123
0.275161
0.243216
0.210826
0.179863
0.292701
0.258762
0.230233
0.208528
0.195976
0.193733
0.201434
0.214522
0.230819