/*--------------------------------*- C++ -*----------------------------------*\
| =========                 |                                                 |
| \\      /  F ield         | OpenFOAM: The Open Source CFD Toolbox           |
|  \\    /   O peration     | Version:  5.0                                   |
|   \\  /    A nd           | Web:      www.OpenFOAM.org                      |
|    \\/     M anipulation  |                                                 |
\*---------------------------------------------------------------------------*/
FoamFile
{
    version     2.0;
    format      ascii;
    class       volScalarField;
    location    "1650/air";
    object      nut;
}
// * * * * * * * * * * * * * * * * * * * * * * * * * * * * * * * * * * * * * //

dimensions      [0 2 -1 0 0 0 0];

internalField   nonuniform List<scalar> 
243000
(
0.000143327
0.000145993
0.000143166
0.000138739
0.000133286
0.000127314
0.000121115
0.000114921
0.000108893
0.000103187
9.78783e-05
9.30064e-05
8.85456e-05
8.45388e-05
8.09974e-05
7.8026e-05
7.57259e-05
7.43055e-05
7.34728e-05
7.46436e-05
7.51963e-05
7.57735e-05
7.58506e-05
7.50417e-05
7.48091e-05
0.000324727
0.000320338
0.00030832
0.000280102
0.000313374
0.000623297
0.0006599
0.000667866
0.000666559
0.000659365
0.000648091
0.000633981
0.000617972
0.000600661
0.000582607
0.000564063
0.000545305
0.000526398
0.000507889
0.000490189
0.000474027
0.000460045
0.00044969
0.00044459
0.000440751
0.000438802
0.000435356
0.000427978
0.000415196
0.000393338
0.000376692
0.000347697
0.000318201
0.000287806
0.000285234
0.000671467
0.000708081
0.000718577
0.000718177
0.000711151
0.000699638
0.000685026
0.000668291
0.00065009
0.000631063
0.000611483
0.000591703
0.000571879
0.000552665
0.000534555
0.000518358
0.000504721
0.000495042
0.000489461
0.000487071
0.00048552
0.000482306
0.000475017
0.000462131
0.000443287
0.000419483
0.000390361
0.000355257
0.000320387
0.000298398
0.000692014
0.000730121
0.000743612
0.000745884
0.000740866
0.000730919
0.000717446
0.000701456
0.000683667
0.000664789
0.000645189
0.000625329
0.000605444
0.000586301
0.000568483
0.000552889
0.000540161
0.000531551
0.00052678
0.000524675
0.000522997
0.000519486
0.000511935
0.000498888
0.000480034
0.000455477
0.000425588
0.000388717
0.000351614
0.000323993
0.000694492
0.000732603
0.000751387
0.000757857
0.000755917
0.000748526
0.00073709
0.000722674
0.000706073
0.00068806
0.000669105
0.000649775
0.000630403
0.000611856
0.000594791
0.000580195
0.000568681
0.000561287
0.000557329
0.000555404
0.000553427
0.000549422
0.000541475
0.00052827
0.000509445
0.000484955
0.000455154
0.000418327
0.000380052
0.000348729
0.000685284
0.000723994
0.000747367
0.000758376
0.000760456
0.000756197
0.000747397
0.000735062
0.000720146
0.000703482
0.000685619
0.000667237
0.000648767
0.000631184
0.00061516
0.000601816
0.000591675
0.000585531
0.000582328
0.000580535
0.000578214
0.000573666
0.000565287
0.00055194
0.000533259
0.000509148
0.000479877
0.000443892
0.000405226
0.000371328
0.000666378
0.000707545
0.00073534
0.000750919
0.000757192
0.000756667
0.000750665
0.000740584
0.000727733
0.000712776
0.00069634
0.000679207
0.000661907
0.000645537
0.000630756
0.000618815
0.000610119
0.000605196
0.000602691
0.000601008
0.000598359
0.000593297
0.000584509
0.000571041
0.000552569
0.000528989
0.000500464
0.000465642
0.000427254
0.000391802
0.000639467
0.000684579
0.000716914
0.000737198
0.000747872
0.000751119
0.000748392
0.000741157
0.000730343
0.000717158
0.000702403
0.00068675
0.00067082
0.000655807
0.000642419
0.000631968
0.000624728
0.000620965
0.000619103
0.000617534
0.00061461
0.000609109
0.000599965
0.000586411
0.000568182
0.000545194
0.000517514
0.000484055
0.000446384
0.000410235
0.000607202
0.00065676
0.000693732
0.000718675
0.000733806
0.000740904
0.000741608
0.000737283
0.000729047
0.000717986
0.000704754
0.000690678
0.00067625
0.000662702
0.000650787
0.00064186
0.000636046
0.000633361
0.000632098
0.000630659
0.000627535
0.000621689
0.000612271
0.000598684
0.000580723
0.000558346
0.000531619
0.000499302
0.000462703
0.00042663
0.000575442
0.00062761
0.00066802
0.000696808
0.000716142
0.000727082
0.000731245
0.00072999
0.000724374
0.000715506
0.000704333
0.000691814
0.000678806
0.000666779
0.000656366
0.00064895
0.000644495
0.000642804
0.000642094
0.000640813
0.000637573
0.000631493
0.000621898
0.000608344
0.00059069
0.000568991
0.000543001
0.000511691
0.000476529
0.000441026
0.000545844
0.000597828
0.000641578
0.000673926
0.00069631
0.000710634
0.000718133
0.000719947
0.000717041
0.000710491
0.000701264
0.00069049
0.000679114
0.000668498
0.000659562
0.000653601
0.000650419
0.00064963
0.000649436
0.000648344
0.000645077
0.000638877
0.000629218
0.000615779
0.000598527
0.000577353
0.000551994
0.000521599
0.000488101
0.000453469
0.000522089
0.000567905
0.00061396
0.000650083
0.000675947
0.000693048
0.000703118
0.000707766
0.000707562
0.00070336
0.000696163
0.000687137
0.000677339
0.000668245
0.000660712
0.000656113
0.000654097
0.000654126
0.000654406
0.000653537
0.000650332
0.000644131
0.000634527
0.00062133
0.000604429
0.000583731
0.00055894
0.000529371
0.000497684
0.000464149
0.000509477
0.000540037
0.000585256
0.000624839
0.000654557
0.000674902
0.000687559
0.000694232
0.000696422
0.000694525
0.000689365
0.00068213
0.000673895
0.000666255
0.000660082
0.000656739
0.000655776
0.000656527
0.000657251
0.000656631
0.000653573
0.000647495
0.000638105
0.000625161
0.000608612
0.000588365
0.00056411
0.000535886
0.000505733
0.000473286
0.000513363
0.000519527
0.000556909
0.000598146
0.000631749
0.000655795
0.000671455
0.00068046
0.000684403
0.000684438
0.000681212
0.000675739
0.000669063
0.000662808
0.000657907
0.0006557
0.000655649
0.000657046
0.000658196
0.000657834
0.000655004
0.000649163
0.00064
0.000627379
0.00061124
0.000591444
0.000567725
0.000541189
0.000512459
0.000481059
0.000535341
0.000514437
0.000533294
0.000571079
0.000607473
0.000635412
0.000654502
0.000666196
0.000672174
0.000673771
0.00067209
0.000668244
0.000663068
0.000658131
0.000654398
0.000653191
0.000653922
0.00065588
0.000657435
0.000657342
0.000654735
0.000649105
0.00064025
0.000628037
0.00061241
0.000593129
0.000570302
0.00054538
0.000517991
0.000487581
0.00057067
0.0005323
0.000522921
0.000547224
0.000582574
0.000613708
0.000636458
0.000651214
0.000659539
0.000662909
0.000662594
0.00065997
0.000656133
0.000652422
0.000649745
0.000649398
0.000650786
0.000653219
0.000655147
0.000655364
0.000653073
0.00064779
0.00063926
0.000627435
0.000612252
0.000593543
0.000572172
0.000548638
0.000522454
0.000492953
0.000613201
0.000570001
0.000535864
0.000534302
0.00056003
0.000591398
0.00061732
0.000635354
0.000646334
0.000651725
0.000652946
0.000651396
0.000648534
0.000645875
0.00064413
0.000644499
0.000646423
0.000649247
0.000651515
0.000652073
0.000650144
0.000645293
0.000637206
0.000625827
0.000611125
0.000593261
0.000573321
0.00055105
0.000525945
0.000497253
0.000657105
0.000616386
0.000571634
0.000542357
0.000546285
0.000570915
0.000597712
0.000618658
0.000632464
0.000640109
0.000643035
0.000642739
0.000640683
0.000638726
0.000637735
0.000638674
0.000641015
0.000644147
0.000646722
0.00064764
0.000646116
0.000641733
0.000634223
0.000623354
0.00060921
0.000592593
0.000573873
0.000552714
0.000528555
0.000500563
0.000698581
0.000662478
0.00061846
0.000573626
0.000549927
0.000557425
0.00057955
0.000601655
0.000617994
0.000628006
0.000632799
0.000633896
0.000632803
0.000631301
0.000630781
0.000632117
0.000634755
0.000638116
0.00064096
0.000642244
0.000641155
0.000637293
0.00063039
0.000620154
0.000606992
0.000591556
0.000573884
0.000553713
0.000530369
0.000502967
0.000738717
0.000706488
0.000666566
0.00061876
0.000575281
0.000557427
0.000566597
0.000585763
0.000603349
0.000615494
0.000622216
0.000624809
0.000624815
0.000623928
0.000623612
0.000625071
0.000627859
0.000631361
0.000634428
0.000636072
0.000635442
0.000632139
0.000625885
0.000616538
0.000604559
0.000590215
0.000573502
0.000554165
0.000531493
0.000504548
0.00077742
0.00074803
0.000712012
0.000666924
0.000615919
0.000576014
0.000563969
0.000573691
0.000589558
0.000602902
0.000611364
0.000615485
0.000616663
0.000616536
0.000616564
0.000617912
0.000620601
0.000624131
0.000627354
0.000629329
0.000629164
0.000626457
0.000621031
0.000612842
0.000601981
0.000588661
0.000572825
0.000554175
0.000532042
0.000505414
0.000814518
0.000787276
0.000754183
0.000712695
0.000661836
0.000609749
0.000575808
0.000569016
0.000578468
0.000590966
0.000600501
0.000606
0.000608369
0.000609097
0.000609591
0.000610992
0.000613556
0.000616925
0.000620181
0.000622422
0.000622773
0.000620795
0.000616281
0.000609164
0.000599377
0.000587026
0.000571993
0.00055394
0.000532179
0.000505704
0.000850344
0.000824423
0.000793277
0.000754696
0.00070653
0.000650863
0.000601239
0.000574993
0.000572514
0.000580938
0.000590172
0.000596588
0.00060004
0.000601658
0.000602719
0.000604319
0.000606853
0.000610117
0.000613388
0.00061585
0.000616676
0.000615378
0.000611726
0.000605618
0.000596883
0.000585488
0.000571218
0.000553664
0.000532123
0.000505606
0.000884099
0.000859035
0.000829238
0.000792867
0.000747627
0.000692796
0.000635337
0.00059216
0.000574154
0.000574565
0.000581357
0.000587771
0.000591991
0.000594445
0.00059614
0.000598068
0.000600671
0.000603887
0.000607169
0.000609815
0.000611068
0.000610397
0.000607564
0.000602409
0.000594711
0.000584274
0.000570756
0.000553639
0.000532165
0.000505404
0.000914972
0.000890746
0.000862156
0.000827567
0.000784962
0.000732653
0.000673175
0.000618751
0.000585021
0.000574076
0.000575743
0.000580738
0.000585129
0.000588248
0.000590629
0.000593015
0.000595799
0.000599016
0.000602288
0.000605053
0.000606641
0.000606501
0.000604432
0.000600146
0.000593359
0.000583799
0.000571038
0.000554385
0.000532887
0.000505559
0.000944202
0.00092076
0.000893281
0.000860358
0.000820233
0.000771031
0.000712936
0.000653235
0.000606869
0.000583096
0.0005769
0.000578665
0.000582442
0.000586034
0.000589218
0.000592267
0.000595373
0.00059861
0.000601761
0.000604409
0.000606029
0.000606174
0.000604513
0.000600829
0.000594777
0.000586002
0.000573909
0.000557563
0.000535664
0.000507153
0.000974576
0.000952285
0.000926233
0.000895256
0.000857926
0.000812591
0.000758386
0.000698962
0.000645625
0.000610584
0.000595259
0.000592287
0.000594743
0.000598888
0.000603306
0.00060737
0.000610872
0.00061392
0.000616437
0.000618219
0.00061898
0.000618449
0.000616348
0.000612453
0.00060641
0.000597757
0.00058576
0.000569117
0.000546151
0.00051526
0.00101314
0.000992865
0.000969293
0.000941746
0.000909362
0.000870901
0.00082522
0.000773586
0.000722913
0.000684379
0.000663565
0.000657235
0.000659109
0.000664636
0.000670879
0.000676001
0.00067928
0.000680948
0.000681126
0.00067996
0.000677503
0.000673854
0.000668959
0.000662637
0.000654404
0.000643732
0.000629879
0.000611238
0.000585335
0.000549345
0.00108715
0.0010717
0.00105512
0.00103725
0.00101762
0.000995163
0.00096853
0.000937775
0.000905363
0.000879013
0.000864115
0.000860273
0.00086337
0.000870312
0.000877115
0.00088158
0.000882731
0.000881288
0.000877546
0.000871878
0.000864652
0.00085631
0.000847061
0.000836725
0.000824023
0.00080869
0.000791257
0.000769697
0.000741255
0.000703276
0.00132861
0.00132606
0.0013267
0.00132709
0.00132638
0.00132383
0.00131858
0.00131099
0.00129903
0.00128798
0.00128052
0.00127684
0.00127566
0.00127815
0.00128069
0.00128236
0.00128177
0.00128108
0.00128004
0.00127921
0.00127839
0.00127788
0.00127748
0.00127684
0.00127166
0.00126289
0.00125503
0.00124396
0.0012283
0.00120741
0.000173677
0.000180024
0.00017782
0.000172885
0.000166405
0.00015911
0.000151484
0.000143867
0.000136458
0.00012942
0.000122813
0.000116723
0.000111159
0.000106247
0.000102029
9.86919e-05
9.63639e-05
9.53662e-05
9.58071e-05
9.72559e-05
9.87487e-05
9.93029e-05
9.81693e-05
9.48314e-05
8.90299e-05
8.08029e-05
7.20473e-05
0.000309711
0.000313644
7.62228e-05
0.000667303
0.000751879
0.00072678
0.00067587
0.000619647
0.000566599
0.00051932
0.000477838
0.000441682
0.000410418
0.000383053
0.000359318
0.000338065
0.000319819
0.000303929
0.000290916
0.000279959
0.000273428
0.000271279
0.000273807
0.000279926
0.000287159
0.000290359
0.000284887
0.000270903
0.000248175
0.000223822
0.000266337
0.00034781
0.000305625
0.0010542
0.00121571
0.00122487
0.00117324
0.00110045
0.00102352
0.000950545
0.000883847
0.000824024
0.000771262
0.00072437
0.000683268
0.000646199
0.000614339
0.000586961
0.000564331
0.000544483
0.000530681
0.000521121
0.000516933
0.000518702
0.000524077
0.000524347
0.000513435
0.000487186
0.0004458
0.000395029
0.000358322
0.000382014
0.000421091
0.00129742
0.00151452
0.00156172
0.00152998
0.00146523
0.00138678
0.00130634
0.00122912
0.00115738
0.00109233
0.00103342
0.000981182
0.000934131
0.000893767
0.0008599
0.000832421
0.000808224
0.000789656
0.000773148
0.00076072
0.000754374
0.000753073
0.000747498
0.000728337
0.000690963
0.000634565
0.000563349
0.000484443
0.00044573
0.000453582
0.00141776
0.00164929
0.00174368
0.00175773
0.0017175
0.00165173
0.00157589
0.00149903
0.00142465
0.0013552
0.00129114
0.00123382
0.0011822
0.00113843
0.00110301
0.0010751
0.0010505
0.00102956
0.00100765
0.000987442
0.000972838
0.000963596
0.000950746
0.000924021
0.000878143
0.000811422
0.000726983
0.000624925
0.000542684
0.000507657
0.00148574
0.00171786
0.00184458
0.00188947
0.00187853
0.001833
0.00176873
0.00170003
0.00162972
0.00156205
0.00149849
0.00144106
0.00138962
0.00134684
0.00131383
0.00128895
0.00126662
0.00124515
0.00121909
0.00119248
0.00117016
0.00115319
0.00113307
0.00110029
0.00104846
0.000975106
0.000882903
0.000769043
0.000660232
0.000588653
0.00150945
0.00173118
0.00187432
0.00194705
0.00196543
0.00194583
0.00190341
0.00184393
0.00177964
0.0017187
0.00166044
0.00160703
0.00155954
0.00152149
0.00149393
0.00147472
0.00145653
0.0014357
0.00140657
0.00137497
0.00134604
0.00132167
0.00129547
0.00125802
0.00120244
0.00112564
0.00102927
0.000909938
0.000786818
0.000687276
0.00148585
0.001687
0.00184412
0.00194394
0.00199245
0.00199889
0.0019783
0.00193728
0.00188887
0.0018361
0.00178233
0.00173656
0.00169568
0.00166545
0.0016456
0.00163411
0.00162153
0.00160186
0.00157071
0.00153543
0.00150132
0.00147171
0.00144055
0.00139877
0.00134101
0.00126313
0.00116577
0.00104481
0.00091489
0.000794385
0.00139668
0.00158912
0.00176229
0.0018902
0.00196963
0.00200304
0.00200614
0.00198769
0.00195568
0.00191619
0.00187485
0.00183533
0.00180208
0.00178151
0.00177132
0.00176909
0.00176288
0.00174481
0.00171287
0.00167488
0.00163779
0.00160408
0.00156916
0.00152539
0.00146565
0.00138825
0.0012925
0.00117366
0.00104119
0.000903273
0.00127338
0.00144777
0.00163705
0.00179441
0.00190505
0.0019672
0.0019971
0.00200187
0.00198965
0.0019656
0.00193643
0.00190706
0.00188386
0.0018729
0.00187342
0.00188153
0.0018817
0.00186598
0.00183394
0.00179473
0.00175562
0.00171849
0.00168112
0.00163645
0.00157811
0.00150266
0.00140906
0.00129238
0.00115981
0.00100752
0.00115611
0.00128898
0.00147391
0.00165791
0.00180555
0.00189801
0.00195726
0.00198648
0.00199451
0.00198795
0.00197236
0.00195506
0.00194251
0.00194242
0.00195388
0.00197258
0.00197945
0.00196672
0.00193569
0.00189663
0.00185657
0.0018172
0.00177832
0.001734
0.00167883
0.00160501
0.00151318
0.00140088
0.00126838
0.0011058
0.00106228
0.00113866
0.0012986
0.00149108
0.00166666
0.00179902
0.0018916
0.00194585
0.00197491
0.0019859
0.00198556
0.00198154
0.001981
0.00199265
0.0020147
0.0020435
0.0020573
0.00204874
0.00201961
0.0019818
0.00194196
0.00190202
0.0018629
0.00181966
0.00176549
0.00169504
0.00160566
0.00150047
0.00136626
0.0011997
0.000999307
0.00101631
0.00113419
0.00131455
0.00150423
0.00166817
0.00179536
0.00188318
0.00193362
0.0019633
0.00197876
0.00198908
0.00200149
0.00202507
0.00205735
0.00209576
0.00211686
0.00211303
0.00208739
0.00205106
0.00201296
0.00197423
0.00193451
0.00189159
0.00183891
0.00177172
0.00168722
0.00158621
0.00145145
0.00128167
0.000992381
0.000939216
0.00100123
0.00114836
0.00133458
0.00151831
0.00167369
0.00179173
0.00187247
0.00192283
0.00195517
0.0019799
0.0020057
0.00204063
0.00208349
0.00213077
0.00215881
0.0021607
0.00214004
0.00210556
0.00206762
0.00202757
0.00198816
0.00194863
0.00189953
0.00183641
0.00175997
0.001659
0.00152335
0.00135092
0.0010315
0.000927866
0.000923344
0.00101742
0.00117714
0.00136337
0.00153693
0.00167929
0.00178726
0.00186442
0.00191667
0.00195632
0.00199508
0.00204122
0.00209437
0.0021499
0.00218484
0.00219344
0.00217849
0.00214721
0.00211186
0.0020733
0.00203303
0.00199224
0.00194862
0.00189231
0.00182161
0.00171952
0.00158215
0.00140719
0.00112237
0.000979041
0.000910217
0.000942095
0.00105365
0.00121945
0.00139656
0.00155489
0.00168502
0.00178638
0.00186228
0.00191974
0.00197143
0.00202835
0.00209126
0.00215448
0.00219632
0.00221229
0.00220372
0.00217714
0.00214527
0.00210994
0.00207149
0.00203131
0.00198995
0.00194143
0.00187143
0.00176809
0.00162839
0.00145081
0.00127221
0.00110087
0.000978383
0.00093227
0.000984248
0.00110487
0.00126606
0.00142869
0.00157347
0.0016945
0.00179172
0.00186996
0.00193627
0.00200342
0.00207548
0.00214593
0.00219466
0.00221836
0.0022169
0.00219636
0.002169
0.00213767
0.00210441
0.00206699
0.00202888
0.00198287
0.00191109
0.00180569
0.00166296
0.0014825
0.00147893
0.00129015
0.00112769
0.00101491
0.000981593
0.00104116
0.00116247
0.00131266
0.00146144
0.0015954
0.00170982
0.00180651
0.00189016
0.00196784
0.0020485
0.0021258
0.00218142
0.00221294
0.00221935
0.00220624
0.00218427
0.0021585
0.00213095
0.00210068
0.00206535
0.00201659
0.00194207
0.00183374
0.00168719
0.00150333
0.0017352
0.00153657
0.00134744
0.00118196
0.00107143
0.00104436
0.00110496
0.0012212
0.00135928
0.00149666
0.00162224
0.00173351
0.00183229
0.00192358
0.0020121
0.00209583
0.00215839
0.00219762
0.00221272
0.0022085
0.00219317
0.00217503
0.00215527
0.00213208
0.00209654
0.00204411
0.00196614
0.00185405
0.00170273
0.00151472
0.0020291
0.0018255
0.00161896
0.00141655
0.00124245
0.00113228
0.00110874
0.00116993
0.00127906
0.00140702
0.0015354
0.00165567
0.00176582
0.00186875
0.00196798
0.00205784
0.00212721
0.00217417
0.00219897
0.00220498
0.00219904
0.0021889
0.00217672
0.0021587
0.00212124
0.00206649
0.00198575
0.00186884
0.00171169
0.00151853
0.00234347
0.00213815
0.00192046
0.00169333
0.00147347
0.00129306
0.00118735
0.00117015
0.00123203
0.00133596
0.00145638
0.00157792
0.00169405
0.00180538
0.00191184
0.00200945
0.00208689
0.00214209
0.00217668
0.00219304
0.00219731
0.00219549
0.00219065
0.00217416
0.00214036
0.00208673
0.00200215
0.0018799
0.00171622
0.00151704
0.00265514
0.00245051
0.00222677
0.00198456
0.00173494
0.00150342
0.00132652
0.0012316
0.00122665
0.00129043
0.00139132
0.00150422
0.00161912
0.00173211
0.00183992
0.00194002
0.00202309
0.00208661
0.00213089
0.00215851
0.00217401
0.00218178
0.0021841
0.00217753
0.00215005
0.00209671
0.00200964
0.00188537
0.00171665
0.00151164
0.00293439
0.00273315
0.00250887
0.00226055
0.00199514
0.0017317
0.00150223
0.00133939
0.0012659
0.00127428
0.00133788
0.00143259
0.0015355
0.0016397
0.00173858
0.00183258
0.00191538
0.00198304
0.00203511
0.00207391
0.00210287
0.00212469
0.00214036
0.00214769
0.00213468
0.00209094
0.00200593
0.00187752
0.00170897
0.00150172
0.00314408
0.00295096
0.00273338
0.00248864
0.0022206
0.00194256
0.00168023
0.00146557
0.0013293
0.00127791
0.00129188
0.001348
0.00142265
0.00150255
0.00157912
0.0016552
0.001727
0.00179238
0.00185045
0.00190175
0.0019471
0.00198782
0.00202378
0.00205215
0.00206207
0.00204177
0.00197493
0.00185638
0.00168665
0.00148245
0.00324263
0.00306557
0.00286427
0.00263416
0.00237624
0.00209906
0.00182199
0.0015735
0.00138604
0.0012751
0.0012316
0.00123388
0.00126389
0.00130579
0.00135398
0.0014067
0.00146112
0.00151793
0.00157518
0.001633
0.00169092
0.00174927
0.00180608
0.00185813
0.00189663
0.0019093
0.00187948
0.00179
0.00164342
0.00145014
0.00319897
0.00304983
0.00287662
0.00267332
0.00243862
0.00217799
0.00190664
0.00164938
0.0014363
0.00128587
0.00119691
0.00115478
0.0011491
0.00116604
0.00119845
0.00123747
0.00127672
0.00131755
0.00136091
0.00140693
0.00145522
0.00150706
0.00156199
0.00161773
0.00166786
0.00170178
0.00170382
0.00165634
0.00154181
0.00138195
0.00302985
0.00292315
0.00279291
0.00263236
0.00243927
0.00221902
0.00198579
0.00176174
0.00157061
0.00142794
0.0013333
0.00128285
0.00127139
0.00128583
0.00131683
0.00135079
0.0013788
0.00140427
0.00142797
0.00144994
0.00147161
0.00149488
0.00152049
0.00154754
0.00157256
0.00158855
0.00158303
0.00154003
0.00144182
0.00128423
0.00286821
0.00281317
0.00273506
0.00262889
0.00249307
0.00233496
0.00216763
0.00200635
0.00186638
0.00175647
0.00167979
0.00164083
0.00163243
0.00164583
0.00167187
0.00169933
0.00171979
0.00173822
0.00175213
0.00176318
0.00177209
0.00178006
0.00178716
0.00179184
0.0017911
0.00178037
0.00174968
0.0016842
0.00156638
0.00138431
0.00278408
0.00276403
0.00273838
0.00269142
0.00262057
0.00252962
0.00242523
0.00232
0.00222302
0.00214121
0.0020814
0.00204644
0.00203202
0.00203413
0.00204517
0.00206051
0.00207358
0.00208824
0.00210179
0.00211601
0.00213088
0.00214621
0.00216094
0.00217258
0.00217778
0.00217385
0.00215233
0.00210148
0.00200954
0.00186784
0.0027694
0.0027691
0.00276808
0.00274977
0.0027132
0.00266592
0.00260779
0.00254463
0.00248128
0.00242751
0.00238236
0.00234903
0.00232724
0.00231736
0.00231443
0.00231981
0.00232792
0.0023407
0.00235728
0.00237863
0.0024039
0.00243168
0.00246003
0.00248679
0.00250909
0.00252852
0.00253638
0.00252699
0.00250173
0.00245588
0.000200174
0.000206474
0.000202434
0.0001964
0.000188947
0.000180654
0.000172028
0.000163434
0.000155085
0.000147158
0.000139709
0.000132839
0.000126532
0.000120956
0.000116162
0.000112425
0.000109993
0.00010973
0.000112078
0.000115891
0.000119085
0.000120261
0.000118633
0.000113694
0.000105064
9.22636e-05
7.49897e-05
0.00031666
7.52563e-05
7.92675e-05
0.000858863
0.00098418
0.000986861
0.000932372
0.000861656
0.000791959
0.000728859
0.00067336
0.000624648
0.000582018
0.000543736
0.000509516
0.000477215
0.000448195
0.000420984
0.000396957
0.000375677
0.000365974
0.000368583
0.000383173
0.000403609
0.000422736
0.000429507
0.000416196
0.000382247
0.000333102
0.000276432
0.000284722
0.000293875
0.000328911
0.0013727
0.00161044
0.00166779
0.00162927
0.00154918
0.00145576
0.00136248
0.00127519
0.00119529
0.00112309
0.00105674
0.000996338
0.000938836
0.000886777
0.000838767
0.000795485
0.000755675
0.000732076
0.000722807
0.000731364
0.000752134
0.000776024
0.000780834
0.000754639
0.000697601
0.000609468
0.000503345
0.000416532
0.000399571
0.000486812
0.00174636
0.00203175
0.00212667
0.00211965
0.0020542
0.0019634
0.00186378
0.00176491
0.0016705
0.00158251
0.00150006
0.00142408
0.00135194
0.0012866
0.00122765
0.00117464
0.00112456
0.00108931
0.00106641
0.00106345
0.00107507
0.00109506
0.0010955
0.00106181
0.000986691
0.000872409
0.000731992
0.000586602
0.000503329
0.000537603
0.00199113
0.00227607
0.0024137
0.00244548
0.00240522
0.00232948
0.0022367
0.00213935
0.00204195
0.00194863
0.00185974
0.00177722
0.00169885
0.0016287
0.0015673
0.0015119
0.00145686
0.00141164
0.00137505
0.00135768
0.00135992
0.00137293
0.00136976
0.00133033
0.00124618
0.00111752
0.00095608
0.000776024
0.00063718
0.000609394
0.0021417
0.00241094
0.00257338
0.00264027
0.00263565
0.00258176
0.00250305
0.00241666
0.00232376
0.00223306
0.00214519
0.00206298
0.00198555
0.00191766
0.00186013
0.00180743
0.00175021
0.00169569
0.00164613
0.00161585
0.00160717
0.00161299
0.00160635
0.00156507
0.00147816
0.00134415
0.00117258
0.000972841
0.000796088
0.000715812
0.00225055
0.00249548
0.00265799
0.00274529
0.00276903
0.00274627
0.00269384
0.00261493
0.002529
0.00244776
0.00236704
0.0022905
0.00221988
0.00216022
0.0021112
0.00206478
0.00200682
0.00194325
0.0018818
0.00183996
0.00182188
0.00181974
0.00180969
0.00177034
0.00168489
0.00155225
0.00137905
0.00117174
0.000970424
0.000848234
0.00231282
0.00251039
0.0026681
0.00277291
0.00282443
0.00283054
0.00280434
0.0027489
0.00268527
0.00261092
0.00253444
0.00246793
0.00240821
0.00236188
0.00232509
0.00228719
0.00222965
0.00215724
0.00208552
0.00203414
0.00200758
0.00199756
0.00198431
0.00194734
0.00187005
0.00174294
0.00157596
0.00136829
0.00115397
0.00099521
0.00228794
0.00245551
0.00261107
0.00273407
0.00281414
0.00285056
0.00285176
0.00282346
0.00277843
0.00272171
0.00266226
0.00260519
0.002557
0.00252731
0.0025057
0.00247784
0.00242091
0.00234086
0.00226118
0.00220152
0.00216809
0.00215082
0.00213473
0.00210053
0.00203299
0.00191727
0.00175615
0.00155375
0.00133609
0.00114683
0.00219488
0.00233833
0.002495
0.00263837
0.00274854
0.00281668
0.00284714
0.00284693
0.00282503
0.00278873
0.00274672
0.00270575
0.00267508
0.00266118
0.00265614
0.00263952
0.00258271
0.00249754
0.0024124
0.00234683
0.0023072
0.00228406
0.00226535
0.00223465
0.00217508
0.00207117
0.00191939
0.00172772
0.00151099
0.00129937
0.00208326
0.00219118
0.00233911
0.00249761
0.00263615
0.00273758
0.00279919
0.00282736
0.00283134
0.00281788
0.00279611
0.00277451
0.00276215
0.00276699
0.00277894
0.0027737
0.00271659
0.00262805
0.00254105
0.00247268
0.00242834
0.00240084
0.00238032
0.0023514
0.00229639
0.00220352
0.00206504
0.00188818
0.00167569
0.00145203
0.00197441
0.00202592
0.0021546
0.00232107
0.00248476
0.00261895
0.00271433
0.00277238
0.00280336
0.00281426
0.00281497
0.0028147
0.00282317
0.00284724
0.00287691
0.00288164
0.00282758
0.00273919
0.00265169
0.00258235
0.00253446
0.00250507
0.00248166
0.00245213
0.00240099
0.00231805
0.00219663
0.00203103
0.00182478
0.00159646
0.00188009
0.0018601
0.00195733
0.0021206
0.00230281
0.00246727
0.00259626
0.00268722
0.00274711
0.00278324
0.00280743
0.00282999
0.00286019
0.00290375
0.00295148
0.00296544
0.0029166
0.00283218
0.00274586
0.00267782
0.00262931
0.00259504
0.00256891
0.0025395
0.0024922
0.0024205
0.00231397
0.00215702
0.00195673
0.0017262
0.00181214
0.00172135
0.00177144
0.00191418
0.00210241
0.0022905
0.00245084
0.00257438
0.00266469
0.00272898
0.00277738
0.0028232
0.00287552
0.00293914
0.00300382
0.00302716
0.00298644
0.00290901
0.00282548
0.00275785
0.00270593
0.00266928
0.00264171
0.00261543
0.00257282
0.00251325
0.00241583
0.00226624
0.00207098
0.00183952
0.0018163
0.00164909
0.00162939
0.00172796
0.00190226
0.00210072
0.00228576
0.00243938
0.00255997
0.00265305
0.00272811
0.00279716
0.00287134
0.00295499
0.00303553
0.00306893
0.00303842
0.00297144
0.00289288
0.0028298
0.00277804
0.00273939
0.00271174
0.0026846
0.00264976
0.00259568
0.00250294
0.00235908
0.00216751
0.0019355
0.00188293
0.00167446
0.00156952
0.0015966
0.0017298
0.00191659
0.00211277
0.00228982
0.00243808
0.00255924
0.00266108
0.00275441
0.00284933
0.00295302
0.00304809
0.00309263
0.00307483
0.00302074
0.00294976
0.00289164
0.00284388
0.00280665
0.00278054
0.00275295
0.00272236
0.00266806
0.00257684
0.00243747
0.00224706
0.00201399
0.0020252
0.00178638
0.0016178
0.00155968
0.00162221
0.00176481
0.00194965
0.00213685
0.00230602
0.00245213
0.00257943
0.00269656
0.00281133
0.0029344
0.00304267
0.00309946
0.00309654
0.00305729
0.00299672
0.00294505
0.0029028
0.00287161
0.00284739
0.00281978
0.00278665
0.00273072
0.00263836
0.0024997
0.00230976
0.00207511
0.0022608
0.00200232
0.00178387
0.00164108
0.00159839
0.00167692
0.00182026
0.00199612
0.00217351
0.00233762
0.00248675
0.00262557
0.00275934
0.00289914
0.00301956
0.00308943
0.00310305
0.00308032
0.00303296
0.00298979
0.00295505
0.00293128
0.00290734
0.00287762
0.00284195
0.0027834
0.00268825
0.00254742
0.00235675
0.00211945
0.00257246
0.00230369
0.00205157
0.00184105
0.00170593
0.0016758
0.00175121
0.00188684
0.00205295
0.00222306
0.002387
0.00254282
0.0026936
0.00284518
0.00297649
0.00305955
0.00309075
0.00308587
0.00305495
0.00302159
0.00299594
0.00297741
0.00295087
0.00292351
0.0028873
0.00282624
0.00272723
0.00258218
0.00238789
0.0021478
0.00292914
0.00265648
0.00238361
0.00212608
0.00191322
0.00178218
0.00175549
0.00182715
0.00195761
0.00211608
0.00228367
0.00244876
0.00261096
0.00276752
0.00290505
0.00299993
0.00304873
0.00306201
0.00304994
0.00302798
0.00301109
0.00299596
0.00298267
0.00296186
0.00292593
0.00286164
0.00275724
0.00260585
0.00240565
0.00216189
0.0032928
0.00301999
0.00273565
0.00244888
0.00218147
0.00196735
0.00184248
0.00182277
0.00189053
0.00202217
0.00217846
0.00233901
0.00250133
0.00265836
0.00278935
0.00288976
0.00295383
0.00298573
0.00299253
0.00298669
0.00298247
0.00297986
0.00297716
0.00296393
0.00293112
0.00287115
0.00276983
0.00261759
0.00241252
0.00216309
0.00362203
0.00335218
0.00306402
0.00276241
0.00246241
0.0021907
0.00198381
0.00187261
0.0018617
0.00193172
0.00205557
0.00219747
0.00234296
0.00247984
0.00260262
0.002702
0.0027788
0.00282617
0.002852
0.00286646
0.00288137
0.00289675
0.00291079
0.00291451
0.00289278
0.00283302
0.0027371
0.00259776
0.00239864
0.00215102
0.00387506
0.00361273
0.00332869
0.00302479
0.00271076
0.00240585
0.00214081
0.00194998
0.00185462
0.00184796
0.00191025
0.00200742
0.00212033
0.00223062
0.0023299
0.00242265
0.00250377
0.00256259
0.00260769
0.00264379
0.00268205
0.00272005
0.00275657
0.00278378
0.00278739
0.0027473
0.00265801
0.00251956
0.00234159
0.00211191
0.00401392
0.00376681
0.00349641
0.00320233
0.0028902
0.00257304
0.00227441
0.00202531
0.00185379
0.00176741
0.00175165
0.00178648
0.00185263
0.00193335
0.00201669
0.00210152
0.00217703
0.00224131
0.00229687
0.00234954
0.00240362
0.00245882
0.00251411
0.00256294
0.00259269
0.00258574
0.00252256
0.00240642
0.00223645
0.0020246
0.00401554
0.00379469
0.00354991
0.00327888
0.00298427
0.00267484
0.00236879
0.00209291
0.00187584
0.00173217
0.00165487
0.00163814
0.00166869
0.00172785
0.00180706
0.0018839
0.00194974
0.00200648
0.00205828
0.00210825
0.0021573
0.00220817
0.00226095
0.0023112
0.00234901
0.00235977
0.00232548
0.00223234
0.00208743
0.00191076
0.00389159
0.00371177
0.00350852
0.00327732
0.00301907
0.00274097
0.00245909
0.00219782
0.00198341
0.00182746
0.00172941
0.00169542
0.00171181
0.00176211
0.00183617
0.00190325
0.00195503
0.00199641
0.00203394
0.00206506
0.00209287
0.00212012
0.00214785
0.00217387
0.00219146
0.00218962