/*--------------------------------*- C++ -*----------------------------------*\
| =========                 |                                                 |
| \\      /  F ield         | OpenFOAM: The Open Source CFD Toolbox           |
|  \\    /   O peration     | Version:  5.0                                   |
|   \\  /    A nd           | Web:      www.OpenFOAM.org                      |
|    \\/     M anipulation  |                                                 |
\*---------------------------------------------------------------------------*/
FoamFile
{
    version     2.0;
    format      ascii;
    class       volScalarField;
    location    "1900/air";
    object      alphat;
}
// * * * * * * * * * * * * * * * * * * * * * * * * * * * * * * * * * * * * * //

dimensions      [1 -1 -1 0 0 0 0];

internalField   nonuniform List<scalar> 
243000
(
0.000170023
0.000172809
0.000169252
0.000163906
0.000157396
0.000150317
0.000142997
0.000135692
0.000128582
0.000121837
0.000115554
0.000109797
0.000104536
9.98046e-05
9.55942e-05
9.19795e-05
8.90137e-05
8.68632e-05
8.5283e-05
8.51994e-05
8.72587e-05
8.58724e-05
8.69279e-05
8.38943e-05
8.293e-05
8.04667e-05
0.000352919
0.000323533
0.000324584
8.91085e-05
0.000741057
0.000784067
0.000793008
0.000791031
0.000782183
0.000768631
0.000751801
0.000732751
0.000712152
0.000690628
0.000668546
0.00064625
0.000623766
0.000601642
0.000580241
0.000560134
0.000541671
0.000526118
0.000514938
0.000506409
0.000494104
0.000490211
0.000472979
0.000460543
0.000434446
0.00040857
0.000379978
0.000344404
0.000329145
0.000369199
0.000799466
0.000842979
0.00085487
0.000853932
0.000845213
0.000831282
0.000813751
0.000793739
0.000771993
0.00074923
0.000725844
0.000702239
0.00067853
0.000655383
0.000633234
0.000612707
0.000594118
0.000578694
0.000566725
0.000557661
0.000549368
0.00054037
0.000527385
0.000509555
0.000485621
0.000456009
0.000420788
0.000379971
0.000351769
0.000374666
0.000825861
0.000870931
0.000886254
0.000888368
0.000881928
0.000869732
0.000853441
0.000834226
0.000812899
0.000790244
0.000766752
0.000742953
0.000719046
0.000695794
0.000673726
0.000653529
0.000635491
0.00062074
0.000609127
0.000599925
0.000591384
0.00058155
0.000568196
0.000549658
0.000525251
0.000494585
0.000457485
0.000414907
0.000380672
0.000377202
0.000830901
0.000875981
0.000897457
0.000904121
0.000901221
0.000891927
0.000877931
0.000860499
0.000840502
0.000818813
0.000796013
0.000772746
0.000749318
0.000726594
0.000705151
0.000685757
0.000668662
0.000654842
0.000643803
0.000634599
0.000625578
0.000615051
0.000601112
0.000582215
0.00055761
0.000526783
0.00048946
0.000446602
0.000409514
0.000387229
0.000821589
0.000867314
0.000894208
0.000906407
0.00090803
0.000902334
0.000891292
0.000876255
0.000858184
0.000838052
0.000816486
0.000794256
0.000771772
0.000750016
0.000729537
0.00071126
0.000695334
0.000682566
0.000672158
0.000663008
0.000653566
0.000642395
0.000627906
0.000608752
0.000584168
0.000553596
0.000516716
0.000474198
0.000435761
0.000404996
0.000800462
0.000849151
0.000881421
0.000898962
0.000905483
0.000904
0.000896185
0.000883842
0.00086816
0.000850015
0.000830086
0.000809258
0.000788046
0.000767554
0.000748282
0.000731312
0.000716688
0.000705002
0.000695233
0.000686181
0.000676405
0.000664682
0.000649722
0.000630389
0.000605962
0.000575835
0.000539646
0.000497832
0.000458788
0.000423536
0.000769414
0.000823029
0.000860779
0.000883906
0.000895603
0.000898574
0.000894643
0.000885429
0.000872072
0.00085613
0.000838158
0.000819018
0.000799327
0.000780267
0.000762387
0.000746836
0.000733579
0.000722965
0.000713822
0.000704912
0.000694896
0.000682743
0.000667407
0.000647969
0.000623778
0.00059418
0.000558831
0.000518129
0.000478959
0.000441952
0.000731081
0.000790579
0.000834059
0.000862859
0.000879899
0.000887457
0.000887581
0.000881812
0.000871574
0.000857911
0.000841773
0.000824496
0.000806488
0.000788994
0.000772612
0.000758536
0.000746657
0.000737076
0.000728545
0.00071982
0.000709666
0.000697209
0.000681613
0.000662148
0.000638241
0.000609248
0.000574676
0.000535171
0.000496154
0.000457545
0.000693265
0.0007559
0.000803607
0.000837419
0.000859634
0.000871861
0.000876143
0.000874052
0.000866915
0.000855923
0.000842161
0.000826536
0.000810243
0.00079439
0.000779559
0.000766966
0.00075643
0.000747835
0.000739895
0.000731397
0.000721204
0.000708574
0.000692843
0.000673436
0.000649877
0.00062147
0.000587458
0.000549422
0.000510843
0.000471515
0.000657913
0.000720441
0.000772265
0.00081033
0.000836287
0.000852865
0.00086125
0.000862899
0.000859011
0.000850784
0.000839318
0.000825852
0.000811272
0.000796989
0.000783714
0.000772569
0.000763312
0.000755645
0.000748276
0.000740043
0.000729912
0.000717238
0.0007015
0.000682258
0.000659092
0.000631087
0.000597605
0.000561216
0.000523354
0.00048363
0.000629351
0.000684781
0.000739483
0.000782072
0.000812269
0.000832183
0.000843874
0.000849031
0.000848433
0.000843049
0.000834018
0.000822605
0.000809868
0.000797286
0.000785487
0.000775717
0.000767644
0.000760856
0.000754027
0.000746098
0.000736122
0.000723532
0.000707935
0.000688963
0.000666084
0.000638461
0.000605628
0.00057093
0.000533941
0.000494163
0.000613903
0.000651512
0.000705361
0.000752094
0.000786963
0.000810791
0.000825611
0.000833298
0.000835726
0.000833179
0.000826627
0.00081735
0.000806456
0.000795512
0.000785192
0.000776721
0.000769744
0.000763743
0.000757444
0.000749855
0.000740126
0.000727777
0.000712411
0.000693665
0.000671086
0.000643853
0.000612453
0.000579099
0.000542932
0.000503302
0.0006178
0.000626794
0.000671606
0.000720342
0.0007599
0.000788193
0.000806651
0.000817201
0.000821762
0.000821685
0.00081753
0.000810402
0.000801355
0.000792015
0.000783114
0.00077585
0.000769827
0.000764571
0.000758796
0.000751612
0.000742199
0.000730085
0.000714967
0.00069653
0.000674289
0.000647496
0.000617882
0.00058586
0.00055051
0.000511173
0.000642978
0.000619921
0.000643312
0.000688091
0.000731013
0.000763999
0.000786614
0.000800459
0.00080751
0.000809335
0.000807168
0.000802065
0.000794842
0.000787055
0.000779499
0.000773349
0.000768208
0.0007636
0.000758275
0.000751394
0.000742275
0.000730484
0.000715703
0.000697651
0.000675847
0.000650098
0.000622095
0.000591343
0.000556797
0.000517856
0.000684022
0.000639615
0.000630254
0.000659554
0.000701332
0.000738162
0.000765203
0.000782792
0.000792721
0.00079672
0.000796224
0.000792713
0.000787171
0.000780866
0.000774572
0.000769438
0.000765087
0.000761067
0.000756204
0.000749723
0.000740924
0.000729442
0.000714976
0.00069727
0.000675926
0.000651809
0.000625243
0.000595665
0.000561888
0.000523441
0.000733695
0.00068284
0.000644101
0.000643665
0.000674379
0.000711551
0.000742418
0.000764001
0.000777189
0.000783669
0.000785067
0.000782897
0.000778652
0.000773682
0.000768543
0.00076433
0.000760688
0.0007572
0.000752775
0.000746705
0.000738334
0.00072721
0.000713107
0.000695799
0.000675397
0.000652728
0.000627451
0.000598937
0.00056587
0.000528006
0.000785213
0.000736888
0.000684804
0.000651982
0.000657709
0.000687079
0.000719027
0.000744144
0.000760789
0.000770042
0.000773551
0.00077295
0.000769757
0.000765772
0.000761628
0.00075823
0.000755223
0.000752217
0.000748219
0.000742558
0.000734639
0.000723995
0.000710301
0.000693564
0.000674439
0.000652972
0.000628834
0.000601262
0.000568832
0.00053156
0.000833674
0.00079077
0.000738965
0.000687385
0.000661172
0.000670814
0.000697329
0.000723867
0.000743604
0.000755768
0.000761588
0.00076274
0.000760794
0.000757511
0.000754082
0.000751359
0.000748901
0.000746335
0.000742755
0.000737518
0.00073006
0.000719934
0.000706784
0.000691152
0.00067314
0.0006527
0.000629525
0.000602758
0.000570866
0.000534227
0.000880341
0.000842143
0.000795004
0.000739348
0.000689859
0.000670298
0.000681787
0.000704891
0.000726157
0.00074094
0.000749151
0.000752186
0.000751662
0.000749272
0.000746314
0.000743988
0.000741956
0.000739779
0.000736607
0.000731806
0.000724832
0.000715278
0.00070317
0.000688587
0.000671575
0.000652045
0.000629645
0.000603551
0.00057209
0.000536117
0.000925081
0.000890372
0.000847998
0.000795313
0.000736594
0.000691458
0.000678428
0.000690476
0.000709712
0.000725967
0.000736334
0.000741287
0.00074229
0.000740965
0.000738649
0.000736547
0.000734683
0.00073281
0.000730016
0.000725659
0.000719321
0.000710684
0.000699561
0.000685941
0.000669841
0.000651126
0.000629382
0.000603789
0.000572637
0.00053737
0.000967646
0.00093568
0.000896946
0.000848569
0.000789785
0.000730334
0.000692056
0.000684886
0.000696524
0.000711766
0.000723461
0.000730146
0.000732685
0.000732554
0.000731037
0.000729332
0.00072771
0.000726006
0.000723548
0.000719709
0.000714045
0.000706237
0.000696034
0.000683335
0.000668092
0.00065011
0.000628926
0.000603682
0.000572664
0.000538191
0.00100826
0.00097813
0.000941974
0.000897247
0.00084164
0.000777905
0.000721554
0.00069193
0.000689536
0.000699887
0.000711217
0.000719055
0.000722991
0.000724084
0.000723502
0.000722358
0.000721084
0.000719623
0.000717497
0.000714143
0.000709116
0.000702084
0.000692757
0.00068096
0.000666551
0.000649261
0.00062854
0.000603495
0.000572442
0.000538683
0.00104641
0.00101747
0.000983121
0.000941211
0.000889171
0.000826418
0.000761084
0.000712099
0.000691647
0.000692457
0.000700815
0.000708663
0.000713598
0.000715835
0.00071627
0.00071584
0.000715032
0.000713903
0.00071213
0.00070924
0.00070482
0.000698512
0.000690046
0.000679111
0.000665512
0.000648866
0.000628541
0.000603564
0.000572255
0.000539242
0.00108087
0.00105313
0.0010204
0.000980808
0.000932047
0.000872341
0.000804781
0.000743094
0.000704646
0.000692113
0.000694291
0.000700409
0.000705599
0.000708766
0.000710252
0.000710701
0.00071051
0.000709816
0.00070843
0.000705974
0.000702072
0.000696388
0.000688595
0.000678381
0.000665485
0.000649504
0.000629606
0.000604585
0.000572713
0.000540539
0.00111314
0.00108651
0.00105529
0.00101784
0.000972162
0.000916212
0.000850381
0.000782903
0.000730275
0.00070296
0.000695811
0.000698016
0.000702484
0.000706329
0.000709002
0.00071058
0.000711229
0.000711088
0.000710049
0.000707854
0.000704215
0.000698861
0.000691511
0.000681827
0.000669442
0.000653835
0.000634011
0.000608451
0.000575306
0.000545309
0.00114655
0.00112147
0.0010921
0.00105709
0.0010148
0.000963433
0.000902171
0.000835211
0.000774981
0.000734974
0.000717217
0.000713758
0.000716619
0.000721205
0.000725579
0.000728786
0.000730515
0.000730866
0.000729783
0.000727161
0.000722908
0.00071693
0.000709062
0.000698997
0.000686271
0.000670219
0.000649609
0.000622386
0.000586557
0.000559433
0.00118966
0.00116707
0.00114068
0.00110969
0.00107311
0.00102963
0.000978097
0.00092004
0.000863046
0.000819291
0.000795304
0.000787839
0.000789934
0.000796221
0.000803066
0.000808119
0.000810456
0.000810266
0.000807544
0.000802486
0.000795354
0.000786408
0.000775736
0.000763059
0.000747648
0.000728777
0.000705099
0.000673706
0.000631565
0.000604806
0.0012748
0.00125761
0.00123906
0.00121899
0.0011968
0.00117146
0.00114151
0.00110699
0.00107061
0.00104072
0.00102358
0.00101901
0.00102266
0.00103085
0.00103882
0.0010438
0.0010446
0.00104195
0.00103608
0.00102731
0.00101629
0.00100354
0.000989488
0.000973709
0.000954143
0.00093113
0.000904305
0.00086971
0.000824342
0.000792785
0.00155596
0.00155199
0.00155312
0.00155394
0.0015534
0.00155081
0.00154516
0.00153668
0.00152315
0.00151059
0.0015021
0.00149791
0.0014971
0.00150046
0.00150377
0.00150581
0.00150494
0.00150379
0.00150203
0.00150025
0.0014983
0.00149669
0.00149528
0.00149343
0.00148439
0.00147309
0.00146137
0.00144364
0.00141912
0.00139654
0.000206195
0.00021325
0.000210355
0.000204342
0.000196562
0.000187846
0.000178756
0.000169696
0.000160899
0.000152545
0.000144704
0.000137474
0.000130858
0.000124987
0.000119882
0.0001157
0.000112511
0.000110587
0.000110024
0.00011046
0.000110908
0.000110579
0.000108321
0.000103821
9.65316e-05
0.000403856
0.000365516
0.000341787
0.000366916
9.25138e-05
0.000799566
0.000901981
0.000873313
0.000812918
0.000745531
0.000681839
0.00062519
0.000575514
0.000531901
0.000493993
0.000460744
0.000431879
0.000406008
0.00038361
0.000363781
0.000346742
0.000330922
0.000318472
0.000309553
0.000305381
0.00030544
0.00030742
0.000305933
0.000296533
0.000278205
0.000265677
0.000288669
0.000345377
0.00038839
0.000377855
0.00127072
0.00146916
0.00148023
0.00141865
0.00133086
0.00123782
0.00114959
0.00106894
0.000996123
0.000931553
0.000874014
0.000823463
0.000777732
0.000737897
0.000702823
0.000672028
0.00064204
0.000616018
0.000592816
0.000575089
0.000564419
0.00055856
0.000549663
0.000530753
0.000496908
0.000449922
0.000411725
0.000398623
0.000436318
0.000468549
0.00157772
0.00184432
0.00189527
0.00185869
0.00177957
0.00168363
0.00158532
0.00149095
0.00140276
0.00132245
0.00124944
0.00118441
0.00112543
0.00107372
0.00102873
0.000989164
0.000949949
0.000913798
0.000877964
0.000845921
0.000821358
0.000803538
0.000783992
0.000752962
0.000704786
0.00063821
0.0005641
0.000495239
0.000479434
0.000491641
0.00173531
0.00201735
0.00213332
0.00214732
0.00209496
0.00201262
0.00191859
0.00182372
0.0017311
0.00164461
0.00156434
0.001492
0.00142595
0.00136812
0.00131864
0.0012753
0.00123122
0.00118856
0.00114286
0.0010985
0.00106075
0.00103048
0.000999263
0.000957099
0.000897607
0.000818028
0.000723281
0.00061941
0.000554865
0.000528437
0.00182362
0.00210761
0.0022647
0.00231725
0.00230076
0.00224132
0.00215982
0.00207464
0.00198516
0.00190048
0.00181962
0.00174587
0.00167834
0.00161944
0.00156976
0.00152641
0.00148104
0.00143454
0.00138145
0.0013271
0.00127796
0.00123621
0.00119413
0.00114272
0.00107473
0.000986411
0.000880234
0.000757652
0.000659088
0.000600484
0.00185775
0.00213603
0.00231235
0.00239853
0.00241697
0.0023892
0.00233283
0.00225538
0.00217228
0.00209728
0.00202094
0.00195067
0.00188631
0.00183069
0.00178386
0.00174399
0.00169964
0.00165118
0.00159285
0.00153073
0.00147231
0.00141989
0.00136899
0.00131038
0.0012365
0.00114285
0.00103021
0.000898725
0.00077837
0.000690511
0.00184447
0.00209644
0.0022882
0.00240646
0.00246082
0.00246418
0.0024338
0.00237818
0.00231566
0.00224531
0.00217415
0.00211205
0.00205418
0.00200506
0.00196386
0.0019296
0.00188837
0.0018395
0.00177777
0.00171007
0.00164401
0.00158421
0.00152572
0.00146122
0.00138346
0.00128704
0.00117174
0.00103625
0.000902203
0.000788198
0.00175069
0.00199015
0.00220063
0.00235183
0.00244361
0.00247951
0.0024779
0.00244967
0.00240567
0.00235054
0.002294
0.00223632
0.00218656
0.00214596
0.00211274
0.00208572
0.00204899
0.00200102
0.00193769
0.00186663
0.00179657
0.00173094
0.00166706
0.00159765
0.00151693
0.00141946
0.00130449
0.00116771
0.0010244
0.000886739
0.00159897
0.00182415
0.00205744
0.00224267
0.00237448
0.00244523
0.00247612
0.0024763
0.00245544
0.00241862
0.00237552
0.00232977
0.00228823
0.00225679
0.00223332
0.00221449
0.00218328
0.00213749
0.00207395
0.00200137
0.00192773
0.00185864
0.00179125
0.00172035
0.0016381
0.00154181
0.00142759
0.00129149
0.00114182
0.000982104
0.00145052
0.00163049
0.00186234
0.00208413
0.00226149
0.00236877
0.00243527
0.00246541
0.00246937
0.0024531
0.00242576
0.00239353
0.00236254
0.00234233
0.00232834
0.00231788
0.00229324
0.00225044
0.00218815
0.00211567
0.00204078
0.00196882
0.00190019
0.00182954
0.0017497
0.00165258
0.00154026
0.00140393
0.00124859
0.00107188
0.00132873
0.00144247
0.00164751
0.00188321
0.00209609
0.0022539
0.00236052
0.00242237
0.00245196
0.00245763
0.00244816
0.00243112
0.00241304
0.00240333
0.00239989
0.00239802
0.00238042
0.00234142
0.00228165
0.00221079
0.00213686
0.00206515
0.0019969
0.00192605
0.00184644
0.0017505
0.00164316
0.00150511
0.00134309
0.00115272
0.00124508
0.00128572
0.00144203
0.00166635
0.0018983
0.00209656
0.00224797
0.00235124
0.00240719
0.00243582
0.00244579
0.00244538
0.00244133
0.00244353
0.00245022
0.00245701
0.00244625
0.00241171
0.00235578
0.00228831
0.0022165
0.00214585
0.00207681
0.00200715
0.00192897
0.00183668
0.00173091
0.00159191
0.00142435
0.00122285
0.00122917
0.00118214
0.00127249
0.00145928
0.00168892
0.00191294
0.00210103
0.00224282
0.00233728
0.00239117
0.00242139
0.0024388
0.0024497
0.00246437
0.00248137
0.00249643
0.00249295
0.00246334
0.00241185
0.00234774
0.00227575
0.00220458
0.00213703
0.00207201
0.0019975
0.00191289
0.00180534
0.00166454
0.00149193
0.00128134
0.0012701
0.00115855
0.0011685
0.001292
0.00149146
0.00172061
0.00193291
0.00210628
0.00223575
0.0023242
0.00237832
0.00241348
0.00244017
0.00246777
0.00249466
0.00251792
0.00252196
0.00249848
0.00245207
0.00239285
0.00232561
0.00225427
0.00218631
0.00212097
0.00205314
0.00197453
0.00186604
0.00172324
0.00154594
0.00132773
0.00137558
0.00121105
0.00113934
0.00119083
0.00133372
0.0015399
0.00175831
0.00195297
0.00211128
0.00223113
0.00231547
0.00237213
0.00241474
0.00245518
0.00249168
0.00252314
0.00253492
0.00251864
0.00247812
0.00242456
0.00236239
0.00229632
0.00222878
0.00216374
0.00210182
0.00202286
0.00191344
0.00176858
0.00158691
0.00136228
0.00155237
0.00135
0.00121025
0.00116503
0.00124067
0.00139323
0.00159417
0.00179568
0.00197358
0.00211922
0.00223104
0.00231419
0.00237532
0.00242841
0.00247434
0.00251387
0.00253358
0.00252536
0.00249155
0.00244447
0.00238816
0.00232814
0.00226536
0.00220373
0.00214033
0.00205978
0.00194891
0.00180164
0.00161578
0.00138572
0.00179645
0.00157044
0.00137919
0.00125214
0.00122232
0.00130666
0.00146111
0.0016493
0.00183372
0.00199681
0.00213114
0.002238
0.00232175
0.00238923
0.00244471
0.00249208
0.00251985
0.0025204
0.00249421
0.0024545
0.00240537
0.00235236
0.00229833
0.0022398
0.00217162
0.00208739
0.00197421
0.00182389
0.00163379
0.00139907
0.00209755
0.00185853
0.00163305
0.00144039
0.00131785
0.00129686
0.00138209
0.00153142
0.00170456
0.00187342
0.00202285
0.00214875
0.00225241
0.00233865
0.00240518
0.00246003
0.00249594
0.00250583
0.00248863
0.00245742
0.00241751
0.00237328
0.00232678
0.0022687
0.00219682
0.00210751
0.00199065
0.00183692
0.00164239
0.0014035
0.00244036
0.00219536
0.00194839
0.00170987
0.00151001
0.00139019
0.00137514
0.00146106
0.00160091
0.00175988
0.00191423
0.00205239
0.00217154
0.00227348
0.00235509
0.00241998
0.00246425
0.00248395
0.0024778
0.00245626
0.00242544
0.00238952
0.00234742
0.00229011
0.00221589
0.00212172
0.00200093
0.00184301
0.00164348
0.00140026
0.0028044
0.00255809
0.0022982
0.00202973
0.00177415
0.00157001
0.00145762
0.00145045
0.00153654
0.00166785
0.00181388
0.00195522
0.00208325
0.00219613
0.0022898
0.00236618
0.00242071
0.00245083
0.00245623
0.00244488
0.00242282
0.00239442
0.00235688
0.00230125
0.00222745
0.0021324
0.00200739
0.00184451
0.00163921
0.00139046
0.00316282
0.00291849
0.00265235
0.00236637
0.00207496
0.0018093
0.00161211
0.00151334
0.00152
0.00160567
0.00172952
0.00186208
0.0019898
0.00210599
0.00220519
0.0022873
0.00234882
0.00238818
0.00240537
0.00240592
0.002395
0.00237499
0.002345
0.00229787
0.00222886
0.00213298
0.00200654
0.00184114
0.00163072
0.00137743
0.00348156
0.00324244
0.00297678
0.00268436
0.00237451
0.00207068
0.00181081
0.00163159
0.00155737
0.00157739
0.00165909
0.00177073
0.0018855
0.00199284
0.00208486
0.00216308
0.00222398
0.00226766
0.00229507
0.00230991
0.00231522
0.00231198
0.00229848
0.00226804
0.00221318
0.00212468
0.0019953
0.00182795
0.00161672
0.00136095
0.00371777
0.00348924
0.00323258
0.00294543
0.00263325
0.00231256
0.00201388
0.00177334
0.0016247
0.00157395
0.00159703
0.00166466
0.00174761
0.00182789
0.0018973
0.00195747
0.00200715
0.00204973
0.0020846
0.00211491
0.00214057
0.00216083
0.00217269
0.00216955
0.00214245
0.00208009
0.00196698
0.0018027
0.00159149
0.00133725
0.00382257
0.00361375
0.00337745
0.00310893
0.00281007
0.00249147
0.00217589
0.00189521
0.00168573
0.00156415
0.0015192
0.00152417
0.00155648
0.00159554
0.0016347
0.00167232
0.00170782
0.00174376
0.00178097
0.00182041
0.00186086
0.00190158
0.00193935
0.00196764
0.00197699
0.00195481
0.00188369
0.00174595
0.00155042
0.00130478
0.00375788
0.00358291
0.00338122
0.00314612
0.00287644
0.00257848
0.0022695
0.0019772
0.00173564
0.00156564
0.00146588
0.00141829
0.0014103
0.00142411
0.00145086
0.00148115
0.00150935
0.00153686
0.00156626
0.00159601
0.00162758
0.00166189
0.00169798
0.00173186
0.00175624
0.00176005
0.00172649
0.00163392
0.00147064
0.0012664
0.00354189
0.00341849
0.00326936
0.00308638
0.00286688
0.00261632
0.0023504
0.00209446
0.00187554
0.00171187
0.00160346
0.00154588
0.00153245
0.00154744
0.00157951
0.00161307
0.00163877
0.00165965
0.00167602
0.00168705
0.00169468
0.00170096
0.00170671
0.0017102
0.00170693
0.001689
0.00164259
0.00154943
0.00139091
0.00120372
0.00333663
0.00327648
0.00319015
0.0030715
0.00291895
0.00273981
0.00254913
0.0023648
0.00220363
0.00207732
0.00198981
0.00194578
0.00193717
0.00195346
0.00198369
0.00201439
0.00203651
0.00205473
0.00206603
0.00207101
0.00207049
0.00206555
0.00205659
0.00204081
0.00201362
0.00196772
0.00188977
0.00175905
0.00155944
0.00133622
0.00324208
0.00322078
0.00319374
0.00314269
0.00306271
0.00296076
0.00284238
0.00272241
0.00261087
0.00251707
0.00244891
0.00240953
0.00239425
0.00239791
0.00241152
0.00242907
0.00244373
0.00245882
0.00247169
0.00248345
0.00249415
0.00250294
0.00251004
0.00251054
0.00250008
0.00247271
0.00241651
0.00231296
0.00215125
0.0019795
0.00323304
0.00323278
0.00323263
0.00321329
0.00317166
0.00311776
0.00305206
0.00297941
0.0029065
0.00284422
0.00279294
0.00275536
0.00273158
0.00272129
0.0027187
0.00272489
0.00273385
0.00274752
0.00276507
0.00278723
0.00281312
0.00284193
0.00286934
0.00289462
0.00291477
0.00292729
0.0029238
0.00289679
0.00285237
0.00280132
0.00023729
0.000244464
0.000239418
0.000232108
0.00022317
0.000213276
0.000203001
0.000192775
0.000182851
0.000173427
0.000164567
0.000156387
0.000148863
0.000142174
0.000136353
0.000131647
0.000128219
0.00012685
0.000128035
0.000130826
0.000133173
0.000133471
0.000130732
0.000124314
0.000113739
9.84329e-05
8.188e-05
0.00035167
8.69492e-05
9.36077e-05
0.0010287
0.00117936
0.00118365
0.00111893
0.00103459
0.000951429
0.000875702
0.000809152
0.0007504
0.000698826
0.000652514
0.000611194
0.000572326
0.000537347
0.000504275
0.000473918
0.000444074
0.00042362
0.000414981
0.000419254
0.000431851
0.00044485
0.000446227
0.000427379
0.00038827
0.000335477
0.00027904
0.000338058
0.0003201
0.000369215
0.00165162
0.00194073
0.00201138
0.00196518
0.00186854
0.00175595
0.00164303
0.00153727
0.00143987
0.00135159
0.00127044
0.00119662
0.00112648
0.00106264
0.00100306
0.000946889
0.000889356
0.000844186
0.000812843
0.000800245
0.000804312
0.000814235
0.000806367
0.000771103
0.000703677
0.000607084
0.00049677
0.000434101
0.000433772
0.000507115
0.00211346
0.00245867
0.00257778
0.00256858
0.00248784
0.00237726
0.00225554
0.00213436
0.00201796
0.0019092
0.00180713
0.00171293
0.0016233
0.00154115
0.00146541
0.00139359
0.00131818
0.00125276
0.00119918
0.00116601
0.00115368
0.00115107
0.00113422
0.00108491
0.000995402
0.000868534
0.000718016
0.000577644
0.000520582
0.000556006
0.00242283
0.00277796
0.0029437
0.00297812
0.00292468
0.00283148
0.0027168
0.00259581
0.00247406
0.00235737
0.00224571
0.00214169
0.00204209
0.00195098
0.00186816
0.00178885
0.00170237
0.00162036
0.00154686
0.00149383
0.00146464
0.00144859
0.00142108
0.00136162
0.00125936
0.00111462
0.000939015
0.000753317
0.000635574
0.00061582
0.00260979
0.0029474
0.00314611
0.00322541
0.00321703
0.00315121
0.00305227
0.00294254
0.00282426
0.00270953
0.00259683
0.00249111
0.0023897
0.00229754
0.00221417
0.00213331
0.0020399
0.00194383
0.00185272
0.00178219
0.0017366
0.00170791
0.00167175
0.00160514
0.00149687
0.00134395
0.00115545
0.000944674
0.000782414
0.000713824
0.00274846
0.00306217
0.00326503
0.00337059
0.00339623
0.00336558
0.00329368
0.0031943
0.00308331
0.00297998
0.00287249
0.00277175
0.00267521
0.00258856
0.00250935
0.00243137
0.00233352
0.00222555
0.00211943
0.00203366
0.00197402
0.00193318
0.00188962
0.0018206
0.00171041
0.00155633
0.0013643
0.00114193
0.000950059
0.000840753
0.00284399
0.00309847
0.00329583
0.00342308
0.00348187
0.00348494
0.00344434
0.00337072
0.00328567
0.00318621
0.00308224
0.00299335
0.00290616
0.00282983
0.00275946
0.00268725
0.00258674
0.002469
0.00235055
0.00225201
0.00218032
0.00212867
0.00207854
0.00200939
0.00190225
0.00175268
0.00156404
0.00134046
0.00112758
0.0009831
0.00283191
0.00305077
0.00324596
0.00339571
0.00348821
0.00352619
0.00351984
0.00347642
0.00341284
0.0033334
0.00325224
0.00316615
0.00308931
0.00302725
0.00296924
0.00290455
0.00280313
0.00267765
0.00254997
0.00244122
0.00235919
0.0022983
0.0022429
0.00217442
0.00207632
0.00193225
0.0017481
0.001529
0.00130776
0.00113006
0.00273459
0.00292625
0.00312397
0.00329956
0.00342684
0.003502
0.00353074
0.00352136
0.0034844
0.00342852
0.00336494
0.00329561
0.00323508
0.00318592
0.00314266
0.00308647
0.00298554
0.00285503
0.0027201
0.00260496
0.00251512
0.00244579
0.00238706
0.00232109
0.00222791
0.00209164
0.00191742
0.00170545
0.00148054
0.00127469
0.00260929
0.00276193
0.00295093
0.00314414
0.00330679
0.00342161
0.0034884
0.00351313
0.00350728
0.00347783
0.00343592
0.00338756
0.00334314
0.00331274
0.00328311
0.00323571
0.00313697
0.00300429
0.00286581
0.0027469
0.00265168
0.00257643
0.00251647
0.00244906
0.00235901
0.00223339
0.0020714
0.00186795
0.00164323
0.00141831
0.00248187
0.00257356
0.00274003
0.00294304
0.00313695
0.00329235
0.00340005
0.00346095
0.00348719
0.00348717
0.00346999
0.00344456
0.00342034
0.00340783
0.00339317
0.00335486
0.00326025
0.00312808
0.00298992
0.00286962
0.00277247
0.00269563
0.00262888
0.0025599
0.00247288
0.00235826
0.00220701
0.00201238
0.00178954
0.00155183
0.00237325
0.00237899
0.00250941
0.00270971
0.00292703
0.00312012
0.00326913
0.00337049
0.00343149
0.00346153
0.00347137
0.00347072
0.00346869
0.00347538
0.00347591
0.00344672
0.00335797
0.00322886
0.00309527
0.00297703
0.00287621
0.00279352
0.0027234
0.00265528
0.00257204
0.0024701
0.00232641
0.00213885
0.00191767
0.00167027
0.00228885
0.00221044
0.00228733
0.00246523
0.0026913
0.0029142
0.00310218
0.00324401
0.00334275
0.00340658
0.00344448
0.00346954
0.00349116
0.00351712
0.003533
0.0035136
0.00343352
0.00330988
0.0031806
0.00306275
0.00296043
0.00287534
0.00280252
0.00273737
0.00266117
0.00256567
0.00243062
0.00224798
0.00202744
0.00177209
0.00229129
0.00211535
0.00211291
0.00224041
0.00245184
0.00268886
0.0029081
0.00308773
0.00322432
0.00332326
0.00339307
0.00344458
0.00348979
0.00353507
0.00356668
0.00355806
0.00348977
0.00337408
0.00325374
0.00314159
0.00303935
0.00295248
0.00287845
0.00281139
0.00274162
0.00264827
0.00251814
0.00233966
0.00211886
0.00185648
0.0023673
0.00213605
0.00202862
0.00207523
0.00224048
0.002466
0.00270068
0.00291038
0.00308196
0.00321566
0.00331794
0.00339837
0.00346714
0.00353122
0.0035788
0.0035823
0.00352829
0.00342444
0.00331376
0.00320925
0.00311243
0.00302637
0.00295261
0.00288318
0.00281196
0.00271882
0.00259052
0.00241527
0.00219259
0.00192347
0.002531
0.00225646
0.00206874
0.00201397
0.00209922
0.00227636
0.00250057
0.00272495
0.00292372
0.00308884
0.0032225
0.00333177
0.00342509
0.00350741
0.00357054
0.00358775
0.00355001
0.00346169
0.00336234
0.00326657
0.00317738
0.00309681
0.00302337
0.00294959
0.00287369
0.00277817
0.00264888
0.00247436
0.0022489
0.00197332
0.00280284
0.00249886
0.00224585
0.00208795
0.00205233
0.00215594
0.00233524
0.0025496
0.00276084
0.00294951
0.00311073
0.00324691
0.00336369
0.00346404
0.00354219
0.00357416
0.00355417
0.00348481
0.00339866
0.00331385
0.00323404
0.00316009
0.00308611
0.00300809
0.00292617
0.00282661
0.00269423
0.00251744
0.00228871
0.00200672
0.00316204
0.00284182
0.0025436
0.00230056
0.00215345
0.00213192
0.00223696
0.00240656
0.00260768
0.0028061
0.00298717
0.00314539
0.00328202
0.00339965
0.00349049
0.00353727
0.00353559
0.0034886
0.00341779
0.00334649
0.00327613
0.00320812
0.00313401
0.00305438
0.0029679
0.00286386
0.002727
0.00254605
0.00231301
0.00202465
0.00357227
0.00324533
0.00291923
0.00261597
0.00237288
0.00223247
0.00221768
0.00231872
0.00247966
0.0026674
0.00285607
0.003027
0.00317743
0.00330648
0.0034054
0.00346405
0.00347979
0.00345641
0.00340504
0.00334782
0.00328863
0.00322534
0.00315762
0.00308518
0.00299865
0.00289064
0.00274815
0.00256189
0.00232264
0.00202739
0.00398935
0.00366147
0.00332027
0.00297945
0.00266787
0.00242665
0.00229604
0.00229003
0.00238496
0.00254261
0.00271902
0.00288684
0.0030403
0.00316957
0.00326727
0.00333145
0.0033624
0.00336036
0.00333265
0.00329479
0.00325332
0.00320791
0.00315435
0.00308889
0.00300618
0.00290431
0.00276058
0.00256878
0.0023224
0.00201977
0.00436458
0.00404035
0.0036944
0.00333473
0.00298199
0.00266963
0.00244023
0.0023266
0.00232934
0.00241917
0.00256197
0.00271062
0.00284687
0.00296122
0.00304709
0.00310883
0.00315072
0.0031653
0.00316291
0.00315111
0.00313502
0.00311504
0.00308679
0.00304312
0.00297245
0.00286733
0.00273286
0.00255024
0.002305
0.00200151
0.00464798
0.00433336
0.00399301
0.00363082
0.00326065
0.00290713
0.00260683
0.00239799
0.00230117
0.00230295
0.00237628
0.00247669
0.0025772
0.00266451
0.00272795
0.00278213
0.00282533
0.0028552
0.00287532
0.00289191
0.00290546
0.00291653
0.00292058
0.00290939
0.00287098
0.00278738
0.00265759
0.00248144
0.00225489
0.00196374
0.0047928
0.00449739
0.00417485
0.00382588
0.0034588
0.00309041
0.00274885
0.00246917
0.002281
0.00218904
0.00217271
0.00220379
0.00225595
0.00231143
0.00236377
0.00241277
0.00245673
0.00249496
0.0025294
0.00256437
0.00259803
0.00263137
0.0026609
0.00267892
0.00267409
0.00263056
0.00252944
0.00237365
0.00215605
0.00188971
0.00476907
0.00450651
0.00421693
0.00389799
0.00355355
0.00319478
0.00284299
0.00252851
0.00228292
0.00212094
0.00203179
0.00200541
0.00202336
0.00206437
0.00212209
0.00217606
0.00222164
0.00225957
0.00229556
0.00232741
0.00235646
0.00238467
0.00241121
0.00243098
0.0024352
0.00241126
0.00234246
0.00221114
0.00202918
0.00179339
0.0045885
0.00437779
0.00414068
0.00387186
0.00357219
0.0032508
0.00292569
0.00262471
0.00237785
0.00219791
0.00208341
0.00203968
0.00204922
0.00209257
0.00215955
0.00221864
0.00226226
0.00229457
0.00232082
0.00233698
0.00234554
0.00234876
0.00234753
0.0023393
0.00231799
0.00227419
0.00219392
0.00206415
0.001876
0.00167067
0.00434585