/*--------------------------------*- C++ -*----------------------------------*\
| =========                 |                                                 |
| \\      /  F ield         | OpenFOAM: The Open Source CFD Toolbox           |
|  \\    /   O peration     | Version:  5.0                                   |
|   \\  /    A nd           | Web:      www.OpenFOAM.org                      |
|    \\/     M anipulation  |                                                 |
\*---------------------------------------------------------------------------*/
FoamFile
{
    version     2.0;
    format      ascii;
    class       volScalarField;
    location    "1900/air";
    object      epsilon;
}
// * * * * * * * * * * * * * * * * * * * * * * * * * * * * * * * * * * * * * //

dimensions      [0 2 -3 0 0 0 0];

internalField   nonuniform List<scalar> 
243000
(
3.57073
4.36441
4.75641
4.98788
5.07062
5.03538
4.90163
4.6909
4.4233
4.12007
3.79815
3.47162
3.14459
2.82715
2.52528
2.24928
2.00513
1.80359
1.73168
1.642
1.5663
1.4217
1.28478
1.10154
0.973633
0.853895
0.170783
0.134771
0.117686
0.518453
1.86931
2.21391
2.2904
2.27321
2.19768
2.08531
1.9512
1.80649
1.65828
1.51231
1.37174
1.23892
1.11395
0.999471
0.896471
0.806393
0.729218
0.668198
0.623669
0.593376
0.569492
0.536188
0.499867
0.444526
0.384969
0.318023
0.253114
0.188179
0.164209
0.232174
2.34694
2.75118
2.86911
2.85953
2.77271
2.63771
2.47419
2.29597
2.11225
1.93073
1.75538
1.5895
1.43375
1.29184
1.16513
1.05537
0.962155
0.889154
0.835001
0.795751
0.762383
0.724651
0.674736
0.607677
0.526798
0.43637
0.342891
0.25257
0.200219
0.241684
2.58705
3.03389
3.19665
3.21942
3.14974
3.02072
2.85398
2.66535
2.46596
2.26531
2.06908
1.88217
1.70611
1.54575
1.40316
1.28061
1.17744
1.09736
1.03703
0.990945
0.949513
0.903133
0.842547
0.762865
0.665923
0.556182
0.44049
0.328714
0.253665
0.24616
2.63468
3.08689
3.31928
3.39356
3.36083
3.25775
3.1066
2.92502
2.72562
2.51984
2.31497
2.11768
1.93068
1.76014
1.60872
1.47951
1.37157
1.28832
1.22441
1.17287
1.12381
1.0683
0.99752
0.906585
0.796662
0.671942
0.539365
0.409826
0.315828
0.266617
2.5472
2.99619
3.28331
3.41926
3.43745
3.37297
3.25046
3.0885
2.90113
2.70152
2.49809
2.29935
2.10937
1.9358
1.78137
1.65072
1.54229
1.45896
1.39341
1.33752
1.28148
1.21717
1.13691
1.03626
0.91596
0.779821
0.634499
0.49049
0.380559
0.305384
2.35593
2.81196
3.14448
3.33566
3.40853
3.39158
3.30417
3.1693
3.00335
2.81874
2.62487
2.432
2.24553
2.07468
1.92215
1.79424
1.68874
1.60759
1.54189
1.48271
1.42055
1.34828
1.25955
1.15069
1.02232
0.87759
0.722707
0.567473
0.444152
0.349416
2.09261
2.56054
2.92879
3.17088
3.29814
3.33081
3.28705
3.1863
3.04403
2.87989
2.70207
2.52093
2.34324
2.17938
2.03282
1.91088
1.81094
1.7336
1.66889
1.60747
1.54025
1.46117
1.3652
1.24964
1.11514
0.964138
0.8025
0.639693
0.505364
0.397172
1.79548
2.26972
2.66458
2.94981
3.1277
3.20869
3.20978
3.14734
3.03872
2.8978
2.73708
2.57174
2.40666
2.25323
2.11563
2.00203
1.90948
1.83708
1.77429
1.71162
1.64055
1.556
1.45423
1.33346
1.1945
1.03933
0.872689
0.704883
0.561777
0.440598
1.53142
1.98419
2.3834
2.69665
2.91662
3.04252
3.08728
3.06494
2.9902
2.87762
2.74077
2.59079
2.44033
2.29968
2.17313
2.06946
1.9854
1.91867
1.85849
1.79552
1.72185
1.63333
1.52728
1.40281
1.26101
1.10316
0.932223
0.762694
0.613173
0.482157
1.30932
1.7182
2.11551
2.44346
2.68545
2.84803
2.93254
2.94911
2.90912
2.82605
2.71304
2.58427
2.44956
2.32224
2.20799
2.11509
2.04004
1.97939
1.92234
1.85994
1.78496
1.69396
1.58523
1.45866
1.31542
1.15518
0.981373
0.812874
0.65936
0.520306
1.14647
1.47592
1.85771
2.19686
2.46079
2.64588
2.75866
2.80923
2.80297
2.74963
2.66191
2.55384
2.43679
2.32476
2.22293
2.14099
2.07493
2.02059
1.96698
1.90595
1.83089
1.73893
1.62924
1.5021
1.35775
1.19618
1.02123
0.855758
0.7002
0.555111
1.0644
1.27155
1.61266
1.9541
2.23809
2.44716
2.58346
2.65599
2.67894
2.65418
2.59173
2.50515
2.40605
2.30921
2.22036
2.14925
2.09196
2.04364
1.99382
1.93485
1.86091
1.7697
1.66034
1.53308
1.3886
1.22679
1.05609
0.892981
0.736185
0.586561
1.08504
1.13263
1.39254
1.71733
2.01533
2.24837
2.40963
2.50506
2.54689
2.54585
2.50709
2.44177
2.36062
2.27883
2.20272
2.14198
2.09259
2.05026
2.00447
1.94846
1.87657
1.78658
1.67828
1.55217
1.40863
1.24777
1.08441
0.924617
0.767468
0.614601
1.22354
1.09607
1.22432
1.49734
1.79453
2.04789
2.23466
2.35431
2.41669
2.43278
2.41296
2.36716
2.30349
2.23623
2.17231
2.12128
2.07937
2.04241
2.00031
1.94673
1.87713
1.7895
1.68348
1.5597
1.41845
1.26269
1.10667
0.950798
0.794091
0.639104
1.47375
1.20412
1.15158
1.31916
1.58518
1.84745
2.05735
2.20199
2.28641
2.3208
2.31613
2.28531
2.23742
2.18385
2.13133
2.08921
2.05408
2.02211
1.98392
1.93373
1.86686
1.78184
1.67836
1.55718
1.41897
1.2726
1.1235
0.971784
0.816107
0.660082
1.81939
1.46566
1.22934
1.22644
1.40986
1.65522
1.87933
2.04741
2.15475
2.20866
2.22013
2.20144
2.16554
2.1241
2.08191
2.04783
2.0188
1.99138
1.95699
1.91041
1.84731
1.76552
1.66524
1.54735
1.41547
1.2779
1.13539
0.987875
0.833624
0.67759
2.23164
1.84326
1.47809
1.27477
1.30826
1.49072
1.70765
1.89217
2.02138
2.09554
2.1239
2.11859
2.09214
2.05959
2.02618
1.99914
1.97555
1.95226
1.9216
1.87869
1.81965
1.74216
1.64564
1.53233
1.40932
1.27924
1.14287
0.999424
0.846832
0.691467
2.67203
2.27925
1.85851
1.49444
1.32921
1.38767
1.55808
1.74201
1.88772
1.9813
2.02695
2.03577
2.0199
1.99362
1.96651
1.94523
1.92628
1.90675
1.87974
1.84062
1.78576
1.71295
1.62127
1.51629
1.40108
1.27757
1.1466
1.00691
0.856008
0.702018
3.14756
2.75412
2.31568
1.86081
1.51018
1.38468
1.45654
1.60894
1.75822
1.86713
1.92936
1.95247
1.94804
1.92925
1.90632
1.8885
1.87312
1.85686
1.83335
1.79809
1.74757
1.67984
1.59633
1.49934
1.39123
1.27367
1.14723
1.0109
0.861589
0.709573
3.65362
3.25682
2.81214
2.31794
1.83941
1.52022
1.43528
1.51252
1.64175
1.75644
1.83216
1.8689
1.87611
1.86579
1.84816
1.83235
1.81852
1.8048
1.78449
1.75306
1.70785
1.64747
1.5717
1.482
1.38039
1.26823
1.14577
1.01212
0.864129
0.71461
4.18304
3.781
3.32926
2.81723
2.26898
1.79204
1.52364
1.47622
1.55216
1.65559
1.7379
1.78599
1.80427
1.80298
1.79159
1.77899
1.76716
1.75489
1.73734
1.71013
1.67037
1.61655
1.54786
1.46502
1.3695
1.26224
1.14326
1.0116
0.864328
0.717883
4.73403
4.32101
3.85789
3.33216
2.74779
2.16691
1.72731
1.52229
1.50603
1.57426
1.65131
1.70595
1.73366
1.74119
1.73676
1.72841
1.71926
1.70892
1.694
1.67061
1.63586
1.58802
1.52592
1.44965
1.35993
1.25723
1.14114
1.0107
0.863396
0.719886
5.29383
4.86537
4.38751
3.84808
3.24199
2.5999
2.02799
1.6595
1.5199
1.52478
1.58005
1.63316
1.66704
1.6824
1.6852
1.68202
1.67629
1.66841
1.65616
1.6363
1.60615
1.56372
1.5079
1.43771
1.35346
1.25486
1.14113
1.01108
0.862636
0.722102
5.83641
5.39689
4.90762
4.35618
3.73577
3.05975
2.3992
1.88629
1.60725
1.52249
1.53641
1.57684
1.61167
1.63308
1.6431
1.64604
1.64464
1.63984
1.63035
1.61364
1.58727
1.54932
1.49823
1.43291
1.35315
1.25846
1.1469
1.01626
0.864815
0.727115
6.37717
5.92871
5.43026
4.8702
4.24092
3.54686
2.83231
2.20696
1.78926
1.59511
1.54646
1.56075
1.59044
1.61631
1.63443
1.64517
1.64957
1.64856
1.64141
1.62638
1.60163
1.56564
1.51708
1.45462
1.37722
1.28365
1.17106
1.03593
0.876694
0.74472
6.97112
6.52155
6.02032
5.45714
4.82526
4.12569
3.38374
2.68094
2.13893
1.82306
1.69343
1.66859
1.68832
1.72056
1.75174
1.77482
1.78733
1.78983
1.7819
1.76285
1.73227
1.68989
1.63517
1.5669
1.48335
1.38228
1.25945
1.10875
0.929264
0.80273
7.78837
7.3505
6.8604
6.31336
5.70622
5.03674
4.31351
3.58537
2.95532
2.5256
2.30884
2.24367
2.26111
2.31509
2.37491
2.41968
2.44047
2.43857
2.414
2.36894
2.30643
2.22968
2.14042
2.0376
1.91719
1.77642
1.60991
1.40588
1.16015
1.01357
9.57445
9.1889
8.78493
8.36134
7.90917
7.41311
6.8537
6.24423
5.64204
5.17722
4.9221
4.85407
4.90508
5.02271
5.13918
5.21273
5.22424
5.18405
5.09671
4.96822
4.81002
4.63145
4.43976
4.23114
3.98198
3.70166
3.39243
3.02031
2.57581
2.28648
17.314
17.1806
17.2167
17.2417
17.2205
17.1299
16.9373
16.6526
16.2078
15.8021
15.5304
15.3957
15.3674
15.4686
15.5692
15.6313
15.6032
15.5667
15.5117
15.4562
15.396
15.3463
15.3029
15.2466
14.9733
14.6337
14.2899
13.7795
13.0983
12.4949
6.36887
8.20141
9.13139
9.66499
9.87576
9.82675
9.57507
9.1752
8.66703
8.0866
7.45885
6.81444
6.16846
5.55265
4.98071
4.47699
4.04923
3.72152
3.48998
3.31434
3.11243
2.81096
2.39032
1.87435
1.33452
0.200914
0.172874
0.142345
0.131239
0.58017
4.00243
4.65362
5.07648
5.31797
5.4035
5.35232
5.18947
4.94604
4.6483
4.31704
3.96907
3.61909
3.27932
2.9621
2.67861
2.43912
2.24978
2.12118
2.0559
2.0245
1.96963
1.84376
1.63216
1.35023
1.03188
0.684837
0.390817
0.260729
0.295952
0.287927
3.52938
3.98477
4.27316
4.43319
4.48773
4.44798
4.32602
4.13993
3.90749
3.64526
3.36735
3.08634
2.81266
2.55808
2.33246
2.1473
2.00747
1.92092
1.88804
1.88295
1.85621
1.76737
1.60037
1.36389
1.08856
0.802194
0.530918
0.339611
0.318158
0.286761
3.24029
3.61222
3.85346
3.99125
4.04633
4.02818
3.94168
3.79785
3.60978
3.39139
3.15504
2.9126
2.67343
2.45085
2.25451
2.09641
1.98064
1.91399
1.89302
1.89377
1.87314
1.79566
1.64615
1.43252
1.17759
0.905857
0.641267
0.419681
0.31562
0.264074
2.96759
3.27172
3.49688
3.63851
3.71026
3.72031
3.66889
3.56299
3.41312
3.23146
3.02912
2.81731
2.60587
2.40845
2.23479
2.09759
2.00077
1.94863
1.93479
1.93559
1.91341
1.8384
1.6983
1.49877
1.25859
0.998426
0.739725
0.50462
0.355796
0.275905
2.66537
2.91733
3.14234
3.30046
3.39802
3.43897
3.42187
3.35161
3.23716
3.08953
2.91864
2.73543
2.54957
2.37543
2.22284
2.10533
2.02578
1.98659
1.97809
1.97689
1.95048
1.8744
1.73974
1.5506
1.32349
1.07582
0.825557
0.588347
0.419842
0.322303
2.33032
2.54947
2.78154
2.96288
3.09022
3.16238
3.17498
3.13842
3.05833
2.94407
2.80379
2.64877
2.4878
2.33633
2.20426
2.10555
2.04299
2.01598
2.0119
2.00806
1.97664
1.89922
1.76731
1.58666
1.37197
1.13747
0.898595
0.666941
0.491962
0.381705
1.9734
2.17445
2.41997
2.62752
2.7853
2.88483
2.92347
2.91887
2.87132
2.78853
2.67905
2.5522
2.41629
2.28688
2.1749
2.09472
2.0482
2.03252
2.03222
2.02578
1.99016
1.90956
1.78034
1.60802
1.40562
1.18472
0.95871
0.737985
0.564071
0.445369
1.62182
1.81222
2.07144
2.30286
2.4881
2.60794
2.67358
2.69882
2.68231
2.62874
2.54689
2.44587
2.33489
2.22678
2.13417
2.0717
2.04019
2.0347
2.03763
2.02874
1.98802
1.9055
1.77883
1.61559
1.42614
1.21921
1.00691
0.800383
0.632268
0.508099
1.35626
1.52244
1.76768
2.00538
2.2086
2.34316
2.43396
2.48483
2.49571
2.4691
2.41255
2.33455
2.24528
2.15735
2.08293
2.03697
2.01904
2.02231
2.02819
2.01752
1.97466
1.89103
1.76778
1.61236
1.43568
1.24271
1.04449
0.85361
0.694216
0.567296
1.1769
1.30881
1.532
1.76647
1.96333
2.10316
2.21155
2.28205
2.31478
2.31098
2.27581
2.21869
2.14937
2.08031
2.02259
1.99165
1.98525
1.99596
2.00433
1.99269
1.94876
1.86703
1.74825
1.60156
1.43545
1.25668
1.07348
0.898252
0.748562
0.621889
1.06309
1.14752
1.34267
1.57047
1.76577
1.90678
2.01675
2.0966
2.14382
2.15664
2.13988
2.10107
2.04954
1.99746
1.95478
1.93687
1.94002
1.95659
1.96697
1.95517
1.91169
1.83324
1.72113
1.58397
1.42886
1.26316
1.09647
0.93558
0.795154
0.671277
1.0077
1.03175
1.18777
1.40101
1.59748
1.74701
1.85812
1.9366
1.98766
2.01078
2.00824
1.98454
1.94821
1.91073
1.88123
1.87401
1.88472
1.90552
1.91742
1.90622
1.86464
1.79079
1.68747
1.56022
1.41652
1.26327
1.1132
0.966204
0.834714
0.714419
1.03156
0.971082
1.06691
1.24909
1.44441
1.60893
1.72707
1.80511
1.85362
1.87873
1.8845
1.87204
1.84782
1.82228
1.80368
1.80472
1.82089
1.84436
1.85733
1.84737
1.8089
1.74099
1.64697
1.53079
1.39925
1.26093
1.1253
0.99108
0.867988
0.751526
1.13427
0.995693
1.00668
1.13443
1.30637
1.48231
1.61273
1.69374
1.74129
1.76542
1.77294
1.76664
1.7509
1.73427
1.72402
1.73085
1.75039
1.7751
1.78875
1.78054
1.7462
1.68521
1.6008
1.49669
1.37849
1.25568
1.13347
1.01098
0.895629
0.78281
1.32157
1.11744
1.02573
1.07428
1.20515
1.36809
1.50774
1.59582
1.64549
1.66958
1.67687
1.67162
1.66008
1.64902
1.64434
1.65452
1.67544
1.70009
1.71405
1.70791
1.67834
1.62503
1.55074
1.45942
1.35643
1.24808
1.13825
1.0265
0.918206
0.808696
1.59109
1.34715
1.16187
1.09439
1.15332
1.2754
1.41022
1.50664
1.56168
1.58761
1.59527
1.58969
1.57838
1.56908
1.56704
1.57823
1.59871
1.62214
1.63599
1.63199
1.60753
1.56242
1.49886
1.42172
1.33366
1.23878
1.14017
1.03821
0.936271
0.829999
1.93731
1.67513
1.42619
1.24011
1.17874
1.22832
1.33058
1.42669
1.48721
1.5167
1.52581
1.52047
1.50848
1.49746
1.4951
1.50507
1.52348
1.54468
1.55797
1.55604
1.53699
1.50049
1.4492
1.38549
1.31136
1.22871
1.13997
1.04671
0.950304
0.846995
2.35066
2.08152
1.80065
1.52452
1.3287
1.26086
1.29087
1.36399
1.42333
1.45576
1.46701
1.46274
1.45079
1.43771
1.43265
1.43925
1.4543
1.47251
1.48489
1.48507
1.47223
1.44485
1.40416
1.35322
1.29128
1.21922
1.13898
1.05289
0.960909
0.860051
2.82554
2.55278
2.25672
1.92746
1.61731
1.4084
1.32679
1.33733
1.37776
1.40704
1.4193
1.41649
1.40552
1.39189
1.38473
1.38763
1.39883
1.41376
1.42542
1.42784
1.41951
1.39943
1.36866
1.32819
1.27598
1.21222
1.1384
1.05787
0.968934
0.869462
3.35896
3.08276
2.77583
2.41573
2.02708
1.68631
1.46894
1.37561
1.36495
1.37822
1.38672
1.38456
1.37563
1.36367
1.35724
1.3587
1.36725
1.37936
1.38943
1.39243
1.38693
1.37284
1.34991
1.31595
1.26915
1.2103
1.14078
1.0636
0.975658
0.875835
3.95578
3.67506
3.35528
2.97091
2.52972
2.08618
1.73083
1.5083
1.41231
1.38513
1.38074
1.3767
1.37116
1.3646
1.36374
1.36877
1.378
1.38802
1.39566
1.39769
1.39291
1.38112
1.36136
1.32992
1.28493
1.22612
1.15497
1.07539
0.984012
0.880743
4.63942
4.35197
4.01489
3.60376
3.12035
2.60089
2.12639
1.76809
1.55948
1.46483
1.43118
1.42177
1.42236
1.428
1.44248
1.46019
1.4763
1.48757
1.49222
1.48943
1.47914
1.46178
1.43569
1.39773
1.34605
1.27976
1.1987
1.10648
1.00104
0.887486
5.47162
5.17494
4.81628
4.37433
3.85145
3.2738
2.70534
2.22157
1.88869
1.70499
1.62573
1.6063
1.6224
1.65741
1.70919
1.75916
1.79423
1.81182
1.81046
1.79135
1.75838
1.71411
1.65884
1.59199
1.51181
1.41714
1.30671
1.18314
1.04435
0.904691
6.60605
6.3019
5.92362
5.45551
4.90395
4.29119
3.66296
3.08344
2.64025
2.36607
2.23976
2.22189
2.28714
2.40258
2.55208
2.68479
2.76567
2.79315
2.76623
2.68975
2.57662
2.43958
2.2881
2.12717
1.95695
1.77655
1.58295
1.37786
1.15782
0.956231
8.43567
8.141
7.77048
7.31672
6.79341
6.22064
5.62565
5.05093
4.59028
4.3045
4.20744
4.29142
4.54105
4.90516
5.33046
5.68093
5.86647
5.89233
5.7533
5.47063
5.0852
4.64147
4.17671
3.7129
3.25794
2.8132
2.37193
1.9317
1.49127
1.12006
12.0466
11.8297
11.567
11.2632
10.9518
10.6599
10.3881
10.1496
10.0076
10.0383
10.3115
10.8696
11.7028
12.7293
13.7988
14.6043
14.9759
14.9337
14.458
13.6092
12.487
11.212
9.88472
8.56909
7.29498
6.07504
4.90095
3.75477
2.64659
1.76613
20.3422
20.3059
20.3363
20.4455
20.7303
21.238
21.9064
22.6124
23.3784
24.3044
25.5159
27.091
28.9642
30.9819
32.8261
34.0785
34.5866
34.3515
33.326
31.6156
29.3698
26.792
24.048
21.2367
18.4003
15.5777
12.776
9.92888
7.08113
4.82316
35.6038
35.7412
36.4364
37.5189
39.0062
40.8183
42.561
44.184
45.6932
47.2803
49.1748
51.3029
53.4226
55.3634
56.6782
57.1995
57.1045
56.3029
54.8179
52.7538
50.2565
47.4873
44.5195
41.3656
37.9539
34.2779
30.3148
25.9097
21.0171
16.9626
43.3106
43.5515
45.1768
47.2556
49.0796
50.3467
51.1508
51.7815
52.4891
53.5372
54.9032
56.1712
56.9759
57.316
56.7327
55.5337
54.4056
53.074
51.6472
50.1876
48.8359
47.6439
46.6258
45.6713
44.6376
43.4971
42.276
40.9785
39.3187
37.185
9.70664
12.3558
13.4631
14.1642
14.4537
14.3822
14.0231
13.4506
12.7201
11.8826
10.971
10.0313
9.08089
8.17253
7.32829
6.59482
5.99267
5.61626
5.50202
5.50862
5.3766
4.94316
4.19126
3.21737
2.17933
1.24063
0.760622
0.14684
0.56157
0.60083
5.6693
6.40576
6.77751
7.03383
7.13287
7.07309
6.8806
6.58546
6.2179
5.80134
5.35762
4.90415
4.45852
4.03473
3.65519
3.33653
3.1035
3.00572
3.07637
3.21936
3.26492
3.11437
2.76511
2.27611
1.70955
1.12972
0.63375
0.31652
0.35785
0.284261
5.11755
5.56446
5.81273
5.94582
5.96837
5.88665
5.71618
5.47352
5.17547
4.83807
4.47841
4.11104
3.75077
3.41117
3.1101
2.86623
2.69858
2.64716
2.73625
2.88731
2.96111
2.87274
2.62258
2.23407
1.76163
1.2611
0.792216
0.43687
0.360742
0.296713
4.83887
5.16122
5.36614
5.47234
5.48624
5.41522
5.27048
5.06382
4.80709
4.51304
4.19636
3.87047
3.54897
3.24757
2.98348
2.77493
2.63814
2.60814
2.69478
2.82918
2.89862
2.83073
2.61329
2.27433
1.85456
1.39465
0.943028
0.557027
0.374341
0.287855
4.57132
4.79521
4.97709
5.08699
5.11921
5.07761
4.96663
4.7963
4.57683
4.31982
4.03855
3.74557
3.45546
3.18431
2.94926
2.76971
2.6594
2.64727
2.72876
2.84174
2.89302
2.82386
2.62423
2.31581
1.93218
1.50552
1.0744
0.677167
0.431352
0.304814
4.24469
4.38582
4.55774
4.68593
4.75058
4.74924
4.67873
4.54794
4.36669
4.14663
3.90038
3.64011
3.38045
3.13877
2.9323
2.78161
2.69814
2.70321
2.77938
2.8696
2.89909
2.81983
2.62683
2.34053
1.98612
1.59018
1.18333
0.792867
0.514517
0.356303
3.87305
3.94138
4.10288
4.25302
4.35623
4.3979
4.37273
4.28424
4.14312
3.96171
3.75194
3.52606
3.29781
3.08672
2.91016
2.78964
2.73434
2.75579
2.82673
2.89487
2.90073
2.8091
2.61796
2.3459
2.01765
1.65099
1.27072
0.898422
0.60769
0.426375
3.4642
3.47388
3.62385
3.79494
3.9368
4.02163
4.04178
3.9978
3.89872
3.75701
3.58492
3.39494
3.20018
3.02068
2.87546
2.7865
2.7599
2.7966
2.86227
2.91002
2.89325
2.78878
2.5979
2.33715
2.03046
1.69135
1.33837
0.989645
0.700437
0.50345
3.02298
2.99395
3.13698
3.32721
3.50388
3.62905
3.69109
3.69135
3.63473
3.53328
3.39973
3.2461
3.08627
2.9393
2.8263
2.76967
2.77098
2.82146
2.88158
2.91097
2.87437
2.75826
2.56745
2.31756
2.02793
1.71458
1.38851
1.06523
0.785847
0.580659
2.56465
2.51949
2.66311
2.87116
3.07507
3.23368
3.33314
3.37233
3.35686
3.29496
3.19952
3.08211
2.95728
2.84377
2.76302
2.73843
2.76594
2.8279
2.88347
2.89553
2.84197
2.71772
2.52778
2.28879
2.01582
1.72441
1.42485
1.1259
0.859818
0.653151
2.18108
2.11418
2.24666
2.45616
2.67346
2.85298
2.98162
3.05286
3.07304
3.04821
2.98913
2.90679
2.81603
2.73584
2.68687
2.69293
2.74366
2.81445
2.86472
2.86218
2.79565
2.66598
2.4798
2.25215
1.99552
1.72343
1.45059
1.17327
0.921558
0.717462
1.87764
1.77935
1.88995
2.09202
2.3141
2.50729
2.65313
2.74569
2.79339
2.80027
2.77421
2.72457
2.66598
2.61769
2.59929
2.63342
2.70357
2.78065
2.82494
2.81096
2.73557
2.60386
2.42455
2.20877
1.9687
1.71726
1.46566
1.20841
0.97111
0.772385
1.65576
1.51718
1.59474
1.779
1.9977
2.19788
2.35538
2.46408
2.52957
2.55927
2.56082
2.54013
2.51089
2.4922
2.50141
2.56025
2.64563
2.72647
2.76466
2.74249
2.66237
2.53216
2.36212
2.15968
1.93713
1.7072
1.47244
1.23302
1.0094
0.817499
1.5174
1.33559
1.36647
1.51889
1.72395
1.92479
2.08976
2.20957
2.28903
2.33494
2.35539
2.35833
2.35466
2.36198
2.39472
2.47418
2.57043
2.65268
2.68536
2.65813
2.5772
2.45197
2.29286
2.10628
1.9039
1.69183
1.47165
1.24851
1.03769
0.853257
1.48666
1.25653
1.21977
1.32104
1.49663
1.68864
1.85618
1.98331
2.07266
2.13074
2.16561
2.18457
2.20108
2.22946
2.28157
2.37682
2.47979
2.56146
2.58982
2.56061
2.48238
2.36526
2.2193
2.05145
1.86951
1.67278
1.46621
1.25678
1.05748
0.880487
1.55186
1.29644
1.17896
1.20384
1.32792
1.49465
1.65599
1.78592
1.88165
1.94828
1.9938
2.02452
2.0545
2.09825
2.16508
2.27097
2.37694
2.45665
2.48223
2.45382
2.38144
2.27559
2.14574
1.9994
1.83375
1.65114
1.45691
1.25885
1.07003
0.900236
1.71563
1.44348
1.26043
1.19126
1.23905
1.35573
1.49503
1.61971
1.71733
1.78903
1.84184
1.88136
1.92044
1.97293
2.04974
2.16133
2.26723
2.34427
2.36883
2.34369
2.28042
2.18995
2.07984
1.95018
1.79864
1.62836
1.44492
1.25669
1.07683
0.913719
1.99975
1.71365
1.47908
1.31658
1.2562
1.29506
1.38681
1.49132
1.58301
1.65524
1.71208
1.75773
1.80398
1.86025
1.94262
2.05577
2.15947
2.23377
2.25956
2.24038
2.19149
2.11787
2.02279
1.90673
1.76674
1.60643
1.4318
1.2519
1.07914
0.921979
2.40393
2.10251
1.82961
1.58802
1.41487
1.34033
1.35292
1.41427
1.4861
1.5517
1.60862
1.65814
1.71046
1.77145
1.85638
1.96795
2.06902
2.14116
2.17252
2.16428
2.1263
2.06476
1.98139
1.87406
1.74173
1.58814
1.41959
1.24593
1.07848
0.926249
2.92182
2.6019
2.29628
1.99352
1.71973
1.52105
1.42269
1.40687
1.44076
1.48832
1.53979
1.59122
1.65008
1.71938
1.8116
1.92317
2.02462
2.09733
2.1328
2.13191
2.10138
2.04639
1.96559
1.85928
1.72893
1.57736
1.41124
1.24093
1.07682
0.927804
3.55435
3.21025
2.87005
2.51556
2.16037
1.84624
1.62257
1.50387
1.46973
1.48302
1.52334
1.57615
1.6447
1.72927
1.83858
1.96062
2.06746
2.14166
2.17889
2.18088
2.15124
2.094
2.00873
1.89388
1.74999
1.58528
1.4122
1.23993
1.07596
0.927997
4.31733
3.94249
3.5619
3.1565
2.73293
2.32211
1.97842
1.74251
1.61932
1.58129
1.60021
1.65567
1.74309
1.85705
2.00391
2.15526
2.27746
2.35827
2.39514
2.391
2.3476
2.26958
2.15947
2.01828
1.84835
1.65573
1.453
1.25942
1.08369
0.930093
5.25904
4.84747
4.42073
3.96236
3.47769
2.98932
2.5455
2.19809
1.9772
1.87718
1.8702
1.93726
2.06567
2.24121
2.46908
2.68736
2.84857
2.94393
2.97518
2.94377
2.85314
2.71342
2.53458
2.32374
2.08768
1.83498
1.57736
1.33459
1.11942
0.943184
6.49793
6.04707
5.57451
5.06769
4.53413
3.99291
3.4834
3.05574
2.7567
2.60696
2.59255
2.70749
2.936
3.25349
3.66012
4.02722
4.27319
4.39535
4.4002
4.28357
4.06285
3.7636
3.41422
3.03604
2.64469
2.25353
1.87519
1.52838
1.22815
0.992147
8.31047
7.83264
7.33354
6.80592
6.26199
5.72248
5.2201
4.7966
4.50499
4.38773
4.4607
4.74498
5.23071
5.88134
6.67879
7.35102
7.75812
7.91499
7.81838
7.4739
6.92814
6.24359
5.49085
4.72324
3.97336
3.26319
2.60562
2.0179
1.51696
1.13911
11.3625
10.9044
10.4385
9.96909
9.51808
9.11461
8.79223
8.58164
8.52601
8.69014
9.12097
9.87181
10.943
12.2721
13.7806
14.952
15.5832
15.7371
15.3776
14.5495
13.3413
11.8784
10.3052
8.72996
7.21734
5.80716
4.51373
3.35031
2.34971
1.60771
17.1888
16.8694
16.5416
16.284
16.131
16.1306
16.3217
16.7028
17.2926
18.1512
19.3543
20.9738
23.0001
25.3028
27.6662
29.2952
30.0418
30.0384
29.2229
27.6964
25.5809
23.0552
20.3087
17.5018
14.7317
12.0658
9.54309
7.14958
4.97117
3.31743
28.2711
28.2557
28.3243
28.4977
28.9149
29.6621
30.6772
31.9094
33.3545
35.0888
37.1917
39.709
42.5667
45.4663
47.9598
49.1486
49.4013
48.8192
47.4677
45.4426
42.8638
39.8664
36.5551
32.9969
29.2105
25.2381
21.2139
17.0464
12.8782
9.53299
43.4829
43.5009
44.419
45.8144
47.341
48.8305
50.2888
51.7764
53.3975
55.2972
57.5187
59.9327
62.2636
63.8995
64.2964
63.0116
61.6074
59.8706
58.0622
56.1371
54.2245
52.38
50.542
48.5456
46.1948
43.3065
39.6485
35.343
30.3674
26.0089
47.8468
48.4922
50.2515
52.4275
54.4073
55.8816
56.86
57.6341
58.5072
59.6683
61.0309
62.2118
62.8124
62.545
60.9622
58.0377
55.6547
53.3593
51.4655
49.9069
48.8174
48.1684
47.8751
47.7255
47.503
47.0893
46.4895
45.7027
44.5728
43.1906
13.3157
16.7383
17.9909
18.6487
18.9317
18.8131
18.3464
17.6122
16.6726
15.5906
14.4004
13.1615
11.8893
10.6625
9.51268
8.52585
7.77516
7.58017
8.05603
8.71689
8.87258
8.27348
7.02462
5.38044
3.61011
1.99003
0.771652
0.151675
0.565016
0.586815
7.5411
8.38211
8.73676
8.9158
8.97602
8.88291
8.63949
8.27432
7.81916
7.30058
6.74424
6.16787
5.59714
5.04618
4.55381
4.14168
3.87858
3.92831
4.37632
4.91419
5.13811
4.92472
4.36552
3.59669
2.71821
1.78339
0.936624
0.37753
0.322113
0.258484
6.84594
7.28407
7.49473
7.58339
7.56481
7.43959
7.2151
6.90393
6.52447
6.09429
5.63341
5.15623
4.6852
4.2361
3.84026
3.52148
3.33325
3.409
3.80509
4.27585
4.50595
4.38632
3.98697
3.4121
2.69881
1.91707
1.15956
0.552077
0.357532
0.277344
6.57197
6.8255
6.99532
7.07545
7.0579
6.94563
6.7462
6.46876
6.12816
5.73899
5.3193
4.88221
4.45025
4.04251
3.68912
3.41355
3.26452
3.35868
3.70934
4.10893
4.3132
4.21855
3.88546
3.37937
2.75476
2.05499
1.34923
0.712354
0.406372
0.285539
6.30918
6.43768
6.58926
6.68631
6.7005
6.62477
6.46096
6.21852
5.91244
5.55702
5.16928
4.76315
4.36244
3.98621
3.66626
3.42824
3.31885
3.4342
3.75035
4.08442
4.24025
4.14144
3.83082
3.36442
2.79916
2.1614
1.5023
0.868346
0.488015
0.315718
5.96995
6.00458
6.14494
6.27147
6.33063
6.30513
6.18674
5.98548
5.7178
5.39869
5.04526
4.67113
4.30233
3.95844
3.67305
3.47536
3.41059
3.55033
3.83551
4.10684
4.20742
4.08982
3.7834
3.34212
2.81822
2.23389
1.62179
1.01386
0.592678
0.374642
5.55646
5.51392
5.64339
5.80007
5.90884
5.93753
5.87229
5.71876
5.49561
5.21819
4.90489
4.56649
4.23262
3.92523
3.67907
3.52696
3.51269
3.67678
3.93263
4.14107
4.18692
4.04113
3.73228
3.30829
2.81369
2.27698
1.71164
1.14268
0.707121
0.452993
5.08705
4.97555
5.0929
5.27515
5.43167
5.51338
5.50568
5.40569
5.23203
5.00134
4.73335
4.43722
4.14228
3.87534
3.67397
3.57379
3.61297
3.79901
4.0249
4.17392
4.1653
3.98883
3.67461
3.26384
2.79505
2.29702
1.77694
1.25162
0.820073
0.541166
4.57523
4.3985
4.50855
4.71174
4.90999
5.04244
5.0905
5.0475
4.92743
4.74766
4.52896
4.28004
4.0286
3.80637
3.65487
3.61184
3.70493
3.90752
4.10129
4.19449
4.13496
3.92972
3.60999
3.21076
2.76532
2.29887
1.82451
1.34026
0.923092
0.630086
4.03599
3.80912
3.91151
4.13152
4.36294
4.54028
4.64034
4.65278
4.58793
4.46145
4.29497
4.09674
3.89318
3.71952
3.62184
3.63934
3.78317
3.99469
4.15516
4.19533
4.09094
3.86228
3.53881
3.15122
2.72816
2.2924
1.85713
1.40909
1.01135
0.71289
3.49331
3.25101
3.34076
3.5634
3.81591
4.02811
4.17392
4.23476
4.22399
4.15078
4.03749
3.89172
3.73876
3.61746
3.57597
3.6549
3.84228
4.05365
4.17915
4.1708
4.03004
3.78481
3.46165
3.08739
2.68701
2.28172
1.87407
1.45839
1.08206
0.785824
3.02898
2.75737
2.8234
3.0361
3.29659
3.53235
3.71224
3.81251
3.84845
3.82589
3.76422
3.67072
3.56946
3.50291
3.51825
3.65682
3.87653
4.07871
4.16862
4.11909
3.95118
3.6971
3.37967
3.02155
2.64623
2.26466
1.87676
1.48968
1.13516
0.846592
2.64626
2.33898
2.37152
2.56235
2.81863
3.06694
3.26957
3.40482
3.47832
3.49811
3.48373
3.43998
3.39027
3.379
3.44896
3.64167
3.88294
4.06739
4.12172
4.04049
3.8553
3.60058
3.2951
2.95674
2.60643
2.24105
1.86999
1.50593
1.172
0.894207
2.34402
2.0083
1.99724
2.1537
2.39245
2.64172
2.85785
3.01977
3.12455
3.18067
3.20492
3.20587
3.20673
3.24725
3.36984
3.6072
3.85481
4.01798
4.04048
3.93772
3.74569
3.49868
3.21201
2.89951
2.56528
2.21264
1.85575
1.50877
1.19429
0.929006
2.1458
1.78621
1.71675
1.82511
2.03016
2.26645
2.48618
2.66426
2.79469
2.88115
2.93866
2.97578
3.02284
3.11179
3.28266
3.55239
3.79444
3.93423
3.93158
3.81777
3.62939
3.39848
3.1396
2.84693
2.52312
2.18075
1.83553
1.50286
1.20465
0.952178
2.06811
1.70102
1.5554
1.59783
1.74861
1.95379
2.16392
2.34744
2.49452
2.60541
2.69025
2.75862
2.8454
2.97838
3.19104
3.47988
3.70799
3.82516
3.80699
3.69344
3.51927
3.31687
3.0792
2.79718
2.48144
2.14674
1.81088
1.4905
1.2046
0.96518
2.11831
1.75701
1.55137
1.49751
1.56983
1.72115
1.90319
2.07931
2.23288
2.36008
2.46751
2.56371
2.68266
2.85543
3.10217
3.39864
3.60912
3.70789
3.68662
3.5873
3.4429
3.25842
3.02935
2.75344
2.44237
2.11251
1.78362
1.47346
1.19876
0.970109
2.29481
1.9353
1.68244
1.54285
1.51803
1.59148
1.72122
1.87202
2.02
2.15449
2.2792
2.40002
2.55032
2.75521
3.02992
3.32741
3.52196
3.61211
3.60576
3.53449
3.40429
3.22141
2.99601
2.72027
2.4094
2.08091
1.75625
1.45394
1.18868
0.968942
2.63229
2.26383
1.96815
1.74753
1.6175
1.58322
1.6403
1.74254
1.86927
2.00099
2.13757
2.28038
2.46571
2.6997
3.00044
3.30049
3.48947
3.59172
3.6093
3.54418
3.40642
3.2287
2.98887
2.70456
2.38823
2.05617
1.73222
1.43472
1.17652
0.964504
3.14222
2.74638
2.40585
2.11211
1.88019
1.73308
1.68268
1.71356
1.80153
1.9193
2.06301
2.23065
2.45264
2.73031
3.0684
3.38185
3.59386
3.71013
3.73627
3.66034
3.52305
3.33694
3.06827
2.73946
2.38997
2.04464
1.71652
1.41941
1.16498
0.95852
3.82119
3.38607
2.99562
2.63431
2.3113
2.05268
1.88782
1.82429
1.85024
1.94303
2.0948
2.29423
2.56947
2.91068
3.31844
3.6799
3.92892
4.05902
4.0703
3.97879
3.83639
3.59962
3.27321
2.88661
2.47468
2.07656
1.7199
1.41319
1.1575
0.953398
4.69046
4.20639
3.76015
3.33369
2.9314
2.5751
2.30085
2.13758
2.09113
2.151
2.3138
2.56166
2.92023
3.37006
3.90637
4.36677
4.68302
4.81297
4.80496
4.70295
4.49878
4.14621
3.70027
3.20673
2.70361
2.2242
1.79622
1.4433
1.16518
0.953076
5.81544
5.27681
4.77248
4.28518
3.81744
3.38617
3.02594
2.77788
2.66969
2.70585
2.90242
3.24185
3.74839
4.38709
5.16105
5.80113
6.23532
6.35721
6.34921
6.19675
5.80652
5.2288
4.55544
3.85858
3.18536
2.56697
2.02169
1.57477
1.22769
0.976823
7.35269
6.76342
6.20964
5.6775
5.17038
4.70305
4.30682
4.02703
3.90726
3.97796
4.27891
4.80773
5.59152
6.56926
7.76015
8.68877
9.31364
9.46761
9.47942
9.07821
8.32684
7.33907
6.25835
5.18894
4.1953
3.30915
2.54155
1.90954
1.42063
1.07775
9.65877
9.03966
8.46654
7.93165
7.44249
7.01599
6.6842
6.49451
6.49641
6.75717
7.32871
8.2383
9.52133
11.0703
12.9002
14.2069
15.0825
15.3782
15.148
14.3299
13.0033
11.352
9.61125
7.91553
6.34891
4.95936
3.7492
2.73122
1.92858
1.36619
13.4536
12.9007
12.3659
11.9106
11.55
11.3058
11.2175
11.3368
11.7211
12.4351
13.5413
15.0932
17.1367
19.4724
22.0687
23.6645
24.6526
24.8608
24.2561
22.9147
20.9126
18.4436
15.8644
13.3054
10.8651
8.63751
6.61431
4.81589
3.31981
2.25486
20.009
19.6645
19.3542
19.0953
19.0223
19.1504
19.549
20.241
21.2564
22.6553
24.486
26.815
29.6932
32.7328
35.7934
36.7721
36.8849
36.229
35.1128
33.4939
31.4326
28.9695
25.9993
22.7727
19.443
16.2246
13.0492
9.96065
7.17104
5.08918
30.5487
30.4091
30.5482
30.902
31.3212
31.9546
32.9084
34.1632
35.7354
37.6815
40.0248
42.8082
46.0108
48.8809
50.7533
49.0866
47.6164
45.9106
44.37
42.755
41.1041
39.3328
37.3685
35.087
32.3498
28.9309
25.0601
20.7949
16.5173
13.1286
42.2997
42.4525
43.3287
44.5594
45.8653
47.1372
48.3249
49.6014
51.0969
52.871
54.9075
57.136
59.3517
60.2064
59.5376
55.0199
51.9688
49.3253
47.4655
46.0546
45.1612
44.6149
44.2326
43.743
42.8505
41.3714
39.1692
36.2594
32.4895
29.1501
44.1532
45.2024
46.9892
49.0331
50.9098
52.4072
53.5234
54.4659
55.471
56.6748
57.9716
59.0358
59.5491
58.5267
55.5545
49.4974
45.724
42.7404
40.8228
39.593
39.1364
39.3777
40.1324
41.0567
41.8679
42.4
42.5923
42.4605
42.024
41.3679
17.5523
21.7169
23.0261
23.5256
23.6651
23.4148
22.7829
21.8453
20.664
19.3049
17.7952
16.2048
14.5447
12.9276
11.4025
10.1208
9.29248
9.78485
11.7907
13.8351
14.4283
13.4453
11.3981
8.81725
6.06076
3.462
1.43865
0.150997
0.129
0.547036
9.67683
10.5627
10.8619
10.9364
10.912
10.7594
10.4546
10.0139
9.46818
8.84145
8.16233
7.44321
6.72195
6.00729
5.36947
4.82753
4.55254
4.97929
6.22592
7.44165
7.85342
7.4589
6.57858
5.46512
4.23127
2.89361
1.57809
0.531935