/*--------------------------------*- C++ -*----------------------------------*\
| =========                 |                                                 |
| \\      /  F ield         | OpenFOAM: The Open Source CFD Toolbox           |
|  \\    /   O peration     | Version:  5.0                                   |
|   \\  /    A nd           | Web:      www.OpenFOAM.org                      |
|    \\/     M anipulation  |                                                 |
\*---------------------------------------------------------------------------*/
FoamFile
{
    version     2.0;
    format      ascii;
    class       volScalarField;
    location    "1900/air";
    object      k;
}
// * * * * * * * * * * * * * * * * * * * * * * * * * * * * * * * * * * * * * //

dimensions      [0 2 -2 0 0 0 0];

internalField   nonuniform List<scalar> 
243000
(
0.0759659
0.0846695
0.0874748
0.0881512
0.0870957
0.0848174
0.0816197
0.0777789
0.0735218
0.0690702
0.0645835
0.0601866
0.0558919
0.051782
0.0478955
0.044339
0.0411825
0.0385827
0.0374597
0.0364581
0.0360348
0.0340565
0.0325725
0.0296288
0.0276945
0.0255473
0.0239274
0.0203571
0.0190811
0.0209922
0.114749
0.12845
0.131391
0.130733
0.127821
0.123426
0.118075
0.112163
0.105941
0.0996293
0.0933557
0.0872281
0.0812594
0.0755927
0.0703061
0.0655141
0.061264
0.0577959
0.0552396
0.0534322
0.0517047
0.0499709
0.0473919
0.0440991
0.0398583
0.0351313
0.0302251
0.0248142
0.022679
0.0285799
0.133546
0.148471
0.152684
0.152344
0.149244
0.14436
0.13833
0.131605
0.124487
0.117249
0.110038
0.102992
0.0961499
0.0896962
0.0837311
0.0783863
0.0736996
0.0699218
0.0670536
0.0649319
0.0630803
0.0609923
0.0581414
0.0542347
0.0492955
0.0434754
0.0370201
0.0301935
0.0258733
0.0293573
0.142507
0.158476
0.164095
0.164872
0.162485
0.158017
0.152147
0.145367
0.138024
0.130432
0.122786
0.115276
0.107971
0.101095
0.0947784
0.0891765
0.0843193
0.08045
0.0774708
0.0751545
0.0730395
0.070637
0.0674372
0.0631123
0.0576409
0.0511161
0.0437503
0.0359929
0.0302888
0.0297115
0.144251
0.160317
0.168265
0.170766
0.169666
0.166179
0.160998
0.154662
0.147551
0.140028
0.132332
0.124702
0.117249
0.110239
0.103823
0.0981859
0.0933494
0.0895312
0.0865419
0.0840918
0.0817256
0.0790066
0.0754728
0.070809
0.0649587
0.0579841
0.0500752
0.0416951
0.035051
0.0313202
0.141039
0.157161
0.167048
0.171628
0.172236
0.170075
0.165931
0.160373
0.153819
0.14668
0.139222
0.131737
0.124377
0.117457
0.111124
0.105622
0.100943
0.0972713
0.0943318
0.0917881
0.0892007
0.086186
0.0823496
0.0774098
0.071292
0.0640355
0.0558037
0.0470019
0.0396882
0.0342776
0.133885
0.15065
0.162305
0.168819
0.171268
0.1707
0.167754
0.163158
0.157412
0.150894
0.143894
0.136756
0.129674
0.12301
0.116905
0.111658
0.107236
0.10377
0.100919
0.0983155
0.0955429
0.0922687
0.0881702
0.0830089
0.0767096
0.0692822
0.0608636
0.0518005
0.0439939
0.0374942
0.123711
0.141529
0.154794
0.163212
0.16755
0.168655
0.167175
0.163741
0.15883
0.153069
0.146702
0.14007
0.133409
0.127115
0.12135
0.116447
0.112348
0.109124
0.106387
0.103755
0.100837
0.0973499
0.0930342
0.0877024
0.0812854
0.0737659
0.0652656
0.0561078
0.0479479
0.0408334
0.111703
0.130597
0.145338
0.155534
0.161726
0.164507
0.164544
0.162404
0.158646
0.153703
0.147967
0.141947
0.135806
0.129971
0.124624
0.120121
0.116388
0.113423
0.11082
0.108189
0.105168
0.101518
0.0970361
0.0915816
0.0850978
0.0775535
0.0690181
0.0598582
0.0514526
0.0437596
0.100462
0.1194
0.134924
0.146502
0.154365
0.158777
0.16033
0.159557
0.156953
0.152989
0.1481
0.142647
0.13707
0.131751
0.126872
0.122803
0.119452
0.116757
0.114298
0.111696
0.108615
0.104854
0.100259
0.0947301
0.0882282
0.0806968
0.0721224
0.063088
0.0545446
0.0464702
0.0904968
0.108474
0.124613
0.137181
0.146096
0.151935
0.154927
0.15551
0.154102
0.151155
0.147099
0.142408
0.137416
0.132612
0.128226
0.124602
0.121634
0.119208
0.116901
0.114352
0.111252
0.107433
0.102779
0.0972278
0.0907482
0.0832143
0.0746357
0.0658256
0.05725
0.0488897
0.08283
0.0980196
0.11427
0.127787
0.137829
0.144657
0.14874
0.150553
0.15033
0.148418
0.145245
0.141288
0.136938
0.132708
0.128804
0.125617
0.123017
0.120856
0.118704
0.11623
0.113153
0.109326
0.104673
0.0991485
0.0926845
0.0851712
0.0766458
0.0681217
0.05959
0.0510453
0.078833
0.0887487
0.103985
0.118189
0.129381
0.13732
0.142373
0.145026
0.145862
0.144963
0.142681
0.139486
0.135784
0.132116
0.128705
0.12594
0.123689
0.121773
0.119781
0.117402
0.114386
0.110611
0.106001
0.100507
0.094083
0.0866176
0.0783807
0.0700836
0.0616144
0.0529545
0.0798561
0.0821643
0.0942923
0.108436
0.120646
0.129777
0.135912
0.139478
0.141028
0.140991
0.139557
0.137124
0.13407
0.130955
0.128022
0.125656
0.123714
0.122036
0.120207
0.117952
0.115027
0.111313
0.106763
0.101339
0.0949848
0.0876021
0.079776
0.0717294
0.0633474
0.0546278
0.0865213
0.0803938
0.086539
0.0989653
0.111663
0.121942
0.129249
0.133824
0.136179
0.136784
0.136042
0.134316
0.131898
0.129318
0.126841
0.124845
0.123193
0.121724
0.120041
0.117882
0.115049
0.111435
0.106983
0.101667
0.0954255
0.0883012
0.0808651
0.0730774
0.0648037
0.0560693
0.0979517
0.0856046
0.083084
0.0909512
0.102799
0.113847
0.122317
0.127987
0.131239
0.132554
0.132377
0.131202
0.129363
0.127291
0.125241
0.123584
0.122192
0.120917
0.119384
0.117357
0.11463
0.111117
0.106766
0.101556
0.0954486
0.0887637
0.0816837
0.0741491
0.0659957
0.0572888
0.112726
0.0975982
0.0867958
0.086645
0.0950734
0.105805
0.115154
0.121923
0.126151
0.128248
0.128694
0.127972
0.126578
0.124958
0.123298
0.121947
0.120789
0.119689
0.118302
0.116412
0.113828
0.110437
0.106208
0.101129
0.0952935
0.0890109
0.0822596
0.0749655
0.0669362
0.0582966
0.129164
0.113712
0.0981499
0.0889196
0.0904551
0.0986746
0.108028
0.115678
0.120889
0.12383
0.124947
0.12474
0.123701
0.122415
0.121088
0.120007
0.119058
0.118117
0.116872
0.11512
0.11269
0.109461
0.105374
0.100475
0.0950188
0.0890744
0.0826209
0.0755487
0.0676407
0.059089
0.145639
0.130999
0.114342
0.0988732
0.0914305
0.0940788
0.101625
0.109474
0.115498
0.119287
0.121115
0.121468
0.120837
0.119787
0.118699
0.11784
0.117071
0.116274
0.115169
0.11356
0.111287
0.108235
0.104331
0.0997736
0.0946493
0.0889976
0.0828012
0.0759252
0.0681278
0.0596878
0.16244
0.148612
0.132396
0.11444
0.0995652
0.0939544
0.0971653
0.103826
0.110153
0.114659
0.117195
0.118131
0.117954
0.117195
0.116265
0.115538
0.114908
0.114238
0.113267
0.111805
0.109696
0.106836
0.103261
0.0990302
0.0942064
0.0888169
0.0828318
0.0761255
0.0684229
0.060115
0.179412
0.166179
0.150694
0.132485
0.113562
0.100003
0.0962273
0.0996389
0.105233
0.11008
0.113224
0.114735
0.115032
0.114611
0.113888
0.113237
0.112664
0.112093
0.111247
0.109932
0.108029
0.105462
0.102198
0.0982663
0.0937173
0.0885646
0.082762
0.0761865
0.0685564
0.0603992
0.196347
0.183561
0.168639
0.150881
0.130618
0.111605
0.10015
0.0980463
0.101372
0.105826
0.109307
0.111316
0.112076
0.112024
0.111552
0.111028
0.110533
0.110018
0.10928
0.108131
0.106444
0.10414
0.101164
0.0975163
0.0932249
0.0882863
0.0826413
0.0761604
0.0685661
0.0605846
0.213227
0.200643
0.186045
0.168742
0.148397
0.126674
0.108899
0.100087
0.0993599
0.102333
0.105645
0.107965
0.109133
0.10945
0.109264
0.108914
0.108528
0.10809
0.107456
0.10646
0.104975
0.102913
0.100207
0.0968345
0.0927915
0.0880534
0.0825393
0.0761145
0.0685159
0.0606979
0.22972
0.217157
0.202701
0.185734
0.165691
0.14303
0.121203
0.106026
0.0999787
0.100182
0.102586
0.104872
0.106318
0.106972
0.107091
0.106956
0.106712
0.106376
0.105851
0.104999
0.103702
0.101863
0.0994186
0.0963039
0.0924982
0.0879436
0.0825388
0.0761335
0.0684747
0.0608242
0.245158
0.232695
0.218416
0.20174
0.182109
0.15943
0.135576
0.115488
0.103784
0.100089
0.100691
0.102448
0.103952
0.104872
0.1053
0.105426
0.105365
0.105158
0.10475
0.10403
0.102889
0.101238
0.0989951
0.0960915
0.092486
0.088113
0.0828173
0.0763928
0.0685888
0.0611102
0.260073
0.247738
0.233656
0.217309
0.198172
0.175925
0.151435
0.128236
0.111489
0.103257
0.101136
0.101753
0.103039
0.104153
0.10493
0.105389
0.105577
0.105532
0.105225
0.104578
0.103511
0.101951
0.0998269
0.097062
0.0935817
0.0892866
0.0839774
0.0773747
0.0692148
0.0621217
0.275978
0.263986
0.250286
0.234431
0.215976
0.194573
0.170497
0.145995
0.125585
0.112884
0.107455
0.106394
0.107227
0.108586
0.109894
0.110857
0.111377
0.11148
0.111148
0.110352
0.109069
0.107279
0.104946
0.101999
0.0983336
0.0938069
0.0881538
0.0809592
0.0719538
0.0653338
0.297143
0.285903
0.273055
0.258346
0.241515
0.222245
0.200438
0.177205
0.155788
0.140287
0.132128
0.12962
0.130284
0.132346
0.134614
0.1363
0.13708
0.137008
0.136085
0.134384
0.132007
0.129059
0.125587
0.121527
0.116684
0.110891
0.103836
0.0948478
0.0834257
0.0763448
0.340984
0.33177
0.321978
0.311548
0.300218
0.287538
0.272893
0.256474
0.239711
0.226352
0.218842
0.21681
0.218318
0.221789
0.225202
0.227345
0.227679
0.226509
0.223958
0.220177
0.215476
0.210107
0.204266
0.197812
0.18996
0.180929
0.170692
0.157948
0.142016
0.131294
0.50609
0.503485
0.504192
0.504682
0.504271
0.502503
0.498734
0.493133
0.484312
0.476193
0.470713
0.467983
0.467405
0.469451
0.471484
0.472736
0.47217
0.471433
0.470321
0.469198
0.467977
0.466969
0.466087
0.46494
0.459358
0.452387
0.445259
0.434577
0.420109
0.407175
0.111727
0.128935
0.135121
0.13701
0.135832
0.132455
0.127544
0.121646
0.115123
0.108275
0.101278
0.094354
0.0875825
0.0812094
0.0753253
0.070157
0.0657942
0.0625327
0.0604006
0.0589756
0.0572647
0.054338
0.0495917
0.042991
0.0349781
0.0277594
0.0244976
0.0215069
0.0214218
0.0226226
0.174411
0.199743
0.205276
0.202704
0.195674
0.186239
0.175598
0.164477
0.153287
0.142361
0.131828
0.121874
0.112482
0.103911
0.0962247
0.0896446
0.0841068
0.0801152
0.0777586
0.0766387
0.0755978
0.0733765
0.0688681
0.0616667
0.0522152
0.0415683
0.0327329
0.0292512
0.0330759
0.0321917
0.20647
0.23589
0.245192
0.244488
0.238252
0.228751
0.217402
0.205076
0.192329
0.179639
0.167237
0.155406
0.144175
0.133926
0.124806
0.117095
0.110662
0.106032
0.10312
0.101426
0.099762
0.0968357
0.0914075
0.0829175
0.0716743
0.0585464
0.0455627
0.0358606
0.0363291
0.0357562
0.22044
0.251639
0.263467
0.265532
0.261603
0.253879
0.243693
0.231974
0.219364
0.206446
0.193546
0.181055
0.169085
0.158128
0.148449
0.140367
0.133703
0.128906
0.125657
0.123364
0.120893
0.117071
0.110717
0.101216
0.0887821
0.0740976
0.0586122
0.0444308
0.037919
0.0351317
0.221246
0.250468
0.266277
0.2725
0.271795
0.266757
0.258642
0.248497
0.236955
0.224727
0.212198
0.199855
0.187904
0.176943
0.167331
0.159425
0.152985
0.148337
0.144937
0.142122
0.138854
0.134145
0.126961
0.116723
0.103582
0.0880715
0.0712817
0.0544846
0.0433056
0.0372202
0.214949
0.241749
0.260075
0.269608
0.272583
0.270651
0.26502
0.257057
0.247119
0.23621
0.224644
0.213024
0.20164
0.191184
0.182079
0.174735
0.168833
0.164543
0.161121
0.157869
0.153877
0.148357
0.140472
0.129727
0.116228
0.10039
0.0830734
0.0650649
0.0512667
0.0428782
0.202861
0.227516
0.247252
0.25989
0.266429
0.267964
0.265306
0.259356
0.251261
0.242226
0.232039
0.221575
0.211161
0.20159
0.193285
0.186782
0.181629
0.177831
0.174481
0.170879
0.166266
0.160047
0.151592
0.140524
0.126932
0.111111
0.0937638
0.0754481
0.0603065
0.0500359
0.186016
0.208164
0.229418
0.245146
0.255228
0.25992
0.260033
0.256838
0.251362
0.243917
0.235258
0.226315
0.217165
0.208726
0.201446
0.195963
0.19169
0.188465
0.185258
0.181405
0.176293
0.169513
0.160623
0.149388
0.1359
0.120337
0.103288
0.085221
0.0695211
0.0577429
0.164296
0.18516
0.208157
0.226884
0.240384
0.2479
0.250914
0.250651
0.247624
0.24231
0.235618
0.227974
0.220246
0.213077
0.206975
0.202611
0.199284
0.196669
0.193668
0.189665
0.184191
0.177
0.167827
0.156573
0.14334
0.128203
0.111688
0.0942117
0.0784293
0.0654163
0.143591
0.162484
0.185933
0.206754
0.223255
0.23335
0.239321
0.241812
0.241313
0.238213
0.233358
0.22733
0.220941
0.215075
0.210228
0.207014
0.20464
0.202643
0.199895
0.195846
0.190153
0.182715
0.173425
0.162312
0.149452
0.134896
0.119
0.102321
0.0867638
0.0727435
0.127404
0.142437
0.164687
0.187066
0.205427
0.217595
0.226235
0.231225
0.23306
0.232096
0.229032
0.224628
0.219652
0.215164
0.21152
0.20942
0.207966
0.206568
0.204113
0.200117
0.194361
0.186855
0.177631
0.166822
0.154447
0.14044
0.12531
0.109437
0.094214
0.079568
0.115898
0.125451
0.145014
0.167669
0.187561
0.202103
0.212702
0.219689
0.223497
0.224419
0.223109
0.220302
0.216769
0.213563
0.211114
0.210059
0.209453
0.208613
0.206475
0.20263
0.196983
0.189631
0.180677
0.170223
0.158295
0.144914
0.130807
0.115642
0.100709
0.0857277
0.109236
0.112312
0.127609
0.148972
0.169776
0.186578
0.19924
0.208018
0.21323
0.215733
0.216033
0.214732
0.212578
0.210614
0.209264
0.209147
0.209281
0.208938
0.207142
0.203554
0.198135
0.191049
0.182446
0.172462
0.161094
0.148444
0.135275
0.120861
0.10626
0.0910903
0.109821
0.104486
0.113617
0.131638
0.152278
0.171035
0.185704
0.196148
0.202904
0.20661
0.208226
0.208276
0.207383
0.206556
0.206203
0.206884
0.20766
0.207745
0.206281
0.202972
0.197742
0.190934
0.182837
0.173566
0.162928
0.151353
0.138902
0.125168
0.110898
0.0956344
0.117069
0.10475
0.105766
0.118049
0.136095
0.1557
0.172125
0.184129
0.192342
0.197459
0.200164
0.201275
0.201477
0.201645
0.202136
0.203475
0.20478
0.205256
0.204117
0.201172
0.196401
0.189955
0.182323
0.173638
0.163952
0.153452
0.14173
0.128628
0.114671
0.0993564
0.131517
0.113466
0.105432
0.110296
0.123617
0.141513
0.158737
0.172102
0.181699
0.188141
0.192077
0.194104
0.195158
0.196124
0.197292
0.199143
0.200862
0.20168
0.200868
0.198326
0.194062
0.188264
0.181184
0.173182
0.164551
0.154848
0.143821
0.131307
0.117637
0.102292
0.153308
0.131548
0.115662
0.110122
0.116645
0.129972
0.146181
0.160352
0.171143
0.178806
0.1839
0.186962
0.188735
0.190266
0.191928
0.19414
0.196156
0.197264
0.196771
0.194662
0.190957
0.185876
0.179583
0.172503
0.164652
0.155671
0.145271
0.133282
0.119864
0.104519
0.18199
0.158225
0.13681
0.121542
0.11706
0.123534
0.135946
0.14955
0.16099
0.169647
0.17578
0.179813
0.182417
0.184368
0.186345
0.188764
0.190966
0.192308
0.192124
0.190468
0.187392
0.1831
0.177863
0.171678
0.164459
0.156073
0.146198
0.13465
0.12143
0.106092
0.216626
0.191884
0.167289
0.144552
0.129064
0.124702
0.13024
0.140911
0.151852
0.16099
0.167926
0.172815
0.176205
0.17873
0.180931
0.183399
0.185692
0.187218
0.187354
0.186184
0.183863
0.18047
0.176157
0.170758
0.16414
0.156216
0.146742
0.135529
0.122427
0.107076
0.256186
0.230963
0.204575
0.177104
0.152439
0.136472
0.13172
0.136293
0.144794
0.153407
0.16068
0.166206
0.170293
0.173393
0.176018
0.178609
0.180957
0.182643
0.183164
0.182519
0.180837
0.178218
0.174685
0.169968
0.163871
0.156292
0.147083
0.136075
0.122979
0.107537
0.299445
0.273985
0.246427
0.216037
0.185003
0.158713
0.142708
0.137739
0.141201
0.14781
0.15461
0.160388
0.165015
0.168682
0.171831
0.174762
0.177316
0.179201
0.180049
0.179823
0.178654
0.176697
0.173834
0.169594
0.163857
0.156561
0.147474
0.136498
0.123245
0.107554
0.345118
0.319542
0.291069
0.258697
0.223524
0.189525
0.162928
0.147337
0.142865
0.1454
0.150652
0.15608
0.161012
0.165242
0.169031
0.172462
0.175349
0.177451
0.178574
0.178721
0.178008
0.176509
0.174129
0.170367
0.164925
0.157602
0.148357
0.137127
0.123451
0.107349
0.392151
0.366534
0.337321
0.303475
0.26558
0.226406
0.191413
0.165654
0.151971
0.148211
0.15023
0.154679
0.159637
0.164436
0.169035
0.173225
0.176608
0.179009
0.180365
0.180775
0.180354
0.179165
0.177037
0.173518
0.168207
0.160699
0.150716
0.138597
0.123979
0.107115
0.440104
0.414641
0.385017
0.350244
0.31073
0.268454
0.227707
0.193602
0.170836
0.159737
0.157101
0.159417
0.164146
0.169667
0.17553
0.180872
0.184965
0.187826
0.189342
0.189701
0.189081
0.187564
0.185019
0.18112
0.175392
0.167321
0.156239
0.142324
0.125642
0.107204
0.490371
0.465678
0.436467
0.401862
0.362219
0.31903
0.275428
0.23581
0.205761
0.1876
0.179857
0.179412
0.183932
0.190856
0.199094
0.206534
0.211829
0.215101
0.216329
0.215662
0.213407
0.209911
0.205296
0.199381
0.191689
0.181612
0.168283
0.151154
0.130574
0.108873
0.549445
0.527036
0.500188
0.468172
0.431336
0.390771
0.348609
0.308281
0.275309
0.253168
0.242157
0.24053
0.246707
0.257642
0.271075
0.28274
0.290032
0.293299
0.292571
0.287985
0.280383
0.270675
0.259536
0.247128
0.233114
0.216852
0.197212
0.173136
0.144327
0.116089
0.63745
0.620565
0.60008
0.575318
0.54674
0.51527
0.482081
0.449776
0.422575
0.40427
0.39649
0.399651
0.41284
0.432633
0.455061
0.47308
0.482847
0.485214
0.479763
0.466989
0.448325
0.425601
0.400287
0.373074
0.343891
0.312168
0.276504
0.23506
0.186989
0.142132
0.803926
0.795902
0.7859
0.773184
0.758938
0.744194
0.728988
0.71329
0.700026
0.692891
0.694735
0.707805
0.730176
0.758294
0.786512
0.80752
0.817949
0.818784
0.808671
0.788582
0.759956
0.724965
0.685342
0.641558
0.593185
0.539535
0.478838
0.407271
0.323866
0.247499
1.04809
1.04661
1.05226
1.05918
1.0661
1.07223
1.07269
1.06955
1.06502
1.06358
1.06976
1.08373
1.1023
1.12293
1.13936
1.14871
1.15119
1.14658
1.1343
1.11538
1.09099
1.06237
1.03009
0.993032
0.949216
0.897125
0.834032
0.754374
0.655318
0.564973
1.15366
1.1568
1.17815
1.20133
1.21633
1.22138
1.21801
1.21076
1.20391
1.20268
1.20681
1.21235
1.21567
1.21695
1.21014
1.19862
1.18832
1.1766
1.16437
1.15239
1.14202
1.13376
1.12697
1.12028
1.11137
1.09943
1.08325
1.06157
1.03193
0.994785
0.147966
0.169444
0.175036
0.176773
0.175096
0.170745
0.164487
0.156982
0.148677
0.139945
0.130989
0.122098
0.11334
0.105077
0.0974418
0.0908266
0.0854445
0.0822726
0.0818084
0.082741
0.0824695
0.0791603
0.0721371
0.0616299
0.0485161
0.0340529
0.0243195
0.0221592
0.0215699
0.0231532
0.235446
0.267968
0.276132
0.273503
0.264836
0.2529
0.239299
0.225037
0.210576
0.196283
0.182268
0.16877
0.155716
0.143531
0.13234
0.122573
0.114431
0.109987
0.110128
0.113233
0.115727
0.114711
0.10825
0.0961138
0.0793926
0.0599901
0.0409791
0.0318871
0.0330189
0.0316135
0.283442
0.320379
0.333351
0.333247
0.325561
0.313429
0.298758
0.282779
0.266115
0.249279
0.23252
0.216207
0.200369
0.185587
0.172166
0.160581
0.151004
0.145708
0.145359
0.148151
0.150407
0.149051
0.141719
0.127905
0.108497
0.0852636
0.0611316
0.0424444
0.0385734
0.0378362
0.311777
0.347291
0.362589
0.3655
0.360162
0.349777
0.336116
0.320484
0.303616
0.286143
0.26844
0.250993
0.233967
0.218072
0.203812
0.19168
0.181766
0.176184
0.17521
0.17702
0.178223
0.175919
0.16778
0.153076
0.132402
0.107249
0.0801851
0.0552814
0.043034
0.0390068
0.324457
0.355823
0.373159
0.37945
0.377213
0.369638
0.358092
0.343969
0.328028
0.311074
0.293562
0.276085
0.258934
0.242955
0.228796
0.216961
0.20739
0.201867
0.200244
0.200808
0.200616
0.197108
0.188195
0.173047
0.152011
0.126234
0.0978775
0.0696028
0.0510341
0.0422337
0.32449
0.35052
0.369166
0.379003
0.381106
0.377129
0.36839
0.356611
0.342332
0.326744
0.310229
0.293531
0.277046
0.261757
0.248364
0.237436
0.228666
0.223421
0.221169
0.220405
0.218677
0.213872
0.20422
0.188886
0.168024
0.142457
0.113944
0.0843373
0.0618357
0.0491548
0.31809
0.338695
0.356821
0.36911
0.374973
0.375051
0.369954
0.360619
0.348408
0.334933
0.320007
0.304732
0.289522
0.275524
0.263399
0.253844
0.246202
0.241375
0.238558
0.236475
0.233211
0.227106
0.216753
0.201395
0.18103
0.156204
0.128306
0.0987033
0.0740482
0.0583523
0.306019
0.319857
0.336925
0.351373
0.360932
0.364954
0.363722
0.357844
0.348889
0.337261
0.324021
0.310733
0.297257
0.284977
0.274559
0.266714
0.260422
0.256107
0.252801
0.249495
0.244777
0.237449
0.226458
0.211185
0.191518
0.16778
0.140987
0.112237
0.086605
0.0685626
0.285265
0.294652
0.3111
0.327693
0.340822
0.348731
0.351375
0.349206
0.343327
0.334532
0.324124
0.31249
0.300974
0.29075
0.282356
0.276446
0.271637
0.26789
0.264191
0.259806
0.253787
0.245373
0.233859
0.218764
0.199965
0.177371
0.151819
0.124364
0.0987896
0.0789425
0.258203
0.26473
0.281209
0.300071
0.316468
0.328058
0.334421
0.335926
0.333384
0.32763
0.319835
0.310656
0.301487
0.293383
0.287213
0.283359
0.280078
0.276934
0.272949
0.267663
0.260558
0.251257
0.239386
0.224615
0.206517
0.185071
0.161069
0.135032
0.109948
0.0889203
0.232602
0.235604
0.251038
0.270929
0.289869
0.304588
0.314396
0.319247
0.320025
0.317382
0.312385
0.30587
0.29907
0.293432
0.289485
0.287705
0.285933
0.283402
0.27925
0.273269
0.265347
0.255413
0.243445
0.228869
0.211434
0.191185
0.168918
0.144262
0.119918
0.0983048
0.210489
0.20865
0.221875
0.241918
0.262673
0.280098
0.292795
0.300505
0.304243
0.304609
0.302433
0.298608
0.294333
0.291115
0.289459
0.289698
0.289358
0.287439
0.283244
0.276795
0.268392
0.258192
0.246036
0.231727
0.215018
0.196106
0.175263
0.151961
0.128463
0.106691
0.193297
0.185249
0.195053
0.214067
0.235754
0.2553
0.270516
0.280936
0.2872
0.290135
0.290628
0.289417
0.287655
0.286851
0.287396
0.289528
0.290496
0.289172
0.285098
0.278471
0.269684
0.259194
0.247174
0.233367
0.217522
0.200114
0.180358
0.158251
0.135579
0.113874
0.181734
0.167548
0.172388
0.188673
0.210009
0.2309
0.24822
0.260996
0.269651
0.274921
0.277647
0.278821
0.279463
0.280929
0.2835
0.287367
0.28954
0.288787
0.284825
0.278073
0.269191
0.258765
0.247035
0.234
0.219352
0.203029
0.184304
0.163254
0.141346
0.119831
0.179989
0.15899
0.156548
0.16775
0.186774
0.207749
0.226506
0.241247
0.252007
0.259395
0.264234
0.267387
0.270143
0.273629
0.278037
0.283431
0.286709
0.286516
0.282909
0.276414
0.26769
0.257534
0.246311
0.234035
0.220624
0.205107
0.187247
0.167101
0.145869
0.124594
0.18693
0.162295
0.150817
0.15413
0.168187
0.187185
0.206178
0.222261
0.234758
0.243995
0.250715
0.255675
0.260146
0.265312
0.271306
0.27799
0.282244
0.282678
0.279512
0.273486
0.265324
0.255746
0.245295
0.233979
0.221289
0.206473
0.189316
0.16992
0.149263
0.128237
0.203239
0.176022
0.157488
0.151055
0.157268
0.171291
0.188513
0.204818
0.218445
0.229157
0.237483
0.244044
0.249986
0.256399
0.263676
0.271403
0.2765
0.277634
0.275046
0.269655
0.26233
0.253791
0.244375
0.233727
0.221553
0.20727
0.190648
0.171839
0.151648
0.130858
0.230917
0.20184
0.177767
0.161705
0.156587
0.162938
0.175467
0.190112
0.203809
0.215399
0.224963
0.232869
0.240108
0.247427
0.255673
0.264191
0.270008
0.271916
0.270075
0.265546
0.259447
0.252116
0.243487
0.233389
0.221576
0.207657
0.191398
0.172999
0.153149
0.132557
0.268927
0.238432
0.210425
0.186432
0.170242
0.164849
0.169635
0.179877
0.191924
0.203425
0.21369
0.222615
0.230949
0.239196
0.248105
0.25715
0.263602
0.266365
0.265567
0.262279
0.257217
0.250819
0.242846
0.233155
0.221565
0.207827
0.191736
0.173564
0.153914
0.133457
0.315144
0.28346
0.25256
0.222757
0.197036
0.179721
0.173217
0.176113
0.184286
0.194248
0.204434
0.213937
0.223195
0.232406
0.24209
0.251564
0.258693
0.262406
0.262637
0.260362
0.256193
0.250371
0.242785
0.233401
0.221891
0.208087
0.191912
0.173753
0.154115
0.13366
0.367335
0.334453
0.301141
0.267064
0.234183
0.206452
0.188241
0.180967
0.182551
0.189321
0.198407
0.207939
0.217974
0.228199
0.238891
0.249095
0.256971
0.261455
0.262623
0.261242
0.257819
0.252581
0.245308
0.235705
0.223518
0.209102
0.192412
0.173918
0.154047
0.133424
0.423479
0.389361
0.353892
0.316508
0.278485
0.242869
0.214306
0.196361
0.189382
0.190699
0.197399
0.206518
0.217148
0.228579
0.240853
0.252292
0.261079
0.266279
0.268244
0.267508
0.264387
0.259124
0.251608
0.241514
0.228422
0.212334
0.194189
0.174646
0.15402
0.132971
0.482348
0.447143
0.409895
0.370041
0.328514
0.287574
0.251267
0.223917
0.208011
0.202735
0.205534
0.213542
0.22492
0.238203
0.252966
0.266508
0.276499
0.282564
0.285052
0.284355
0.280594
0.274155
0.265146
0.253389
0.238581
0.220394
0.199523
0.177342
0.154829
0.132637
0.544477
0.508801
0.470669
0.429592
0.386351
0.342692
0.301852
0.267919
0.244552
0.232945
0.231406
0.238142
0.250886
0.267313
0.286703
0.303825
0.315794
0.322749
0.32514
0.323006
0.316627
0.306688
0.293738
0.277925
0.259158
0.23727
0.212236
0.185614
0.158581
0.13345
0.614251
0.579676
0.542575
0.502527
0.460224
0.417134
0.375802
0.339695
0.312773
0.297485
0.29354
0.300745
0.317145
0.339658
0.366958
0.389829
0.404636
0.412167
0.412884
0.406468
0.393774
0.37604
0.354597
0.330221
0.303135
0.273357
0.240756
0.205847
0.170981
0.139304
0.704531
0.674136
0.641449
0.606156
0.568885
0.531041
0.494766
0.462938
0.439149
0.426194
0.425052
0.437485
0.461641
0.493978
0.531736
0.561374
0.578684
0.585656
0.582217
0.56828
0.545163
0.514752
0.479325
0.440393
0.398595
0.354145
0.306664
0.256273
0.204612
0.159739
0.843293
0.821754
0.797706
0.771724
0.744365
0.717315
0.692294
0.671537
0.657677
0.653152
0.660664
0.682042
0.715688
0.757424
0.802361
0.834371
0.850789
0.854853
0.84587
0.824414
0.791853
0.750167
0.701488
0.647433
0.588557
0.524879
0.455727
0.379649
0.29886
0.227236
1.06347
1.05374
1.0431
1.03007
1.01573
1.00198
0.989778
0.980525
0.976139
0.979436
0.993627
1.01983
1.05621
1.09683
1.13432
1.15409
1.16063
1.1568
1.14283
1.11969
1.0886
1.05041
1.00558
0.953506
0.892671
0.821362
0.738856
0.64106
0.529459
0.428116
1.30915
1.30608
1.3133
1.32205
1.32541
1.3226
1.31581
1.30808
1.30307
1.3043
1.31444
1.33229
1.35428
1.37159
1.37659
1.3624
1.34666
1.32809
1.30971
1.29091
1.2737
1.25784
1.24228
1.22348
1.19729
1.15887
1.10191
1.02531
0.926685
0.833385
1.34988
1.36
1.38244
1.40509
1.41931
1.42301
1.41642
1.40527
1.39575
1.39212
1.39377
1.39659
1.39638
1.38815
1.36627
1.32935
1.29935
1.27189
1.25105
1.23622
1.22931
1.2294
1.2357
1.24417
1.25085
1.25235
1.24769
1.23625
1.21432
1.18908
0.182681
0.207453
0.212357
0.21235
0.209612
0.204223
0.196759
0.187888
0.178068
0.167723
0.157031
0.146333
0.135644
0.125461
0.115952
0.107788
0.101643
0.100478
0.105484
0.112355
0.115165
0.111593
0.101787
0.086835
0.0679286
0.0466761
0.0253897
0.0229025
0.0215541
0.0227898
0.294335
0.331737
0.338559
0.335424
0.325629
0.311956
0.296274
0.279661
0.262624
0.245509
0.228337
0.211369
0.194433
0.178223
0.162999
0.149716
0.139714
0.138927
0.148473
0.162089
0.171074
0.171254
0.161279
0.142251
0.115993
0.0850217
0.0537662
0.0350827
0.0303043
0.0295066
0.358193
0.399387
0.412364
0.412385
0.40379
0.389963
0.373018
0.354232
0.33431
0.313775
0.292852
0.271914
0.250992
0.230995
0.212535
0.196612
0.18485
0.183735
0.193648
0.20788
0.217451
0.217903
0.207147
0.185944
0.155984
0.119387
0.0809273
0.0493201
0.037904
0.0369744
0.399615
0.437194
0.453826
0.457097
0.451102
0.439111
0.423043
0.404225
0.38356
0.361707
0.339106
0.316218
0.293331
0.271502
0.251708
0.234892
0.22272
0.221337
0.230266
0.243017
0.251359
0.251085
0.239808
0.218006
0.186829
0.147985
0.105795
0.0658258
0.045188
0.0397439
0.424501
0.456622
0.474232
0.480552
0.477987
0.468931
0.454897
0.437247
0.417111
0.395252
0.372311
0.34882
0.325313
0.302994
0.283096
0.266514
0.254749
0.253186
0.260512
0.270792
0.277014
0.275379
0.263602
0.241849
0.210831
0.171797
0.12832
0.0839384
0.0556045
0.0442936
0.435162
0.458239
0.476547
0.487329
0.489186
0.483842
0.472664
0.457049
0.438445
0.417592
0.395338
0.372291
0.349211
0.32746
0.308361
0.292863
0.282074
0.280385
0.285816
0.293181
0.296825
0.293414
0.281042
0.259609
0.229509
0.191558
0.148596
0.102694
0.0688529
0.0521061
0.433496
0.450734
0.468569
0.481624
0.487632
0.486546
0.478772
0.465804
0.449662
0.430625
0.40995
0.38822
0.366432
0.346114
0.328586
0.314845
0.305466
0.303659
0.307076
0.311384
0.312238
0.306838
0.293776
0.272769
0.243993
0.207962
0.166095
0.120697
0.0838119
0.0624497
0.425095
0.435279
0.451032
0.465825
0.475592
0.478834
0.475426
0.466586
0.452814
0.435676
0.417393
0.397722
0.377996
0.359774
0.344539
0.333085
0.325401
0.323446
0.324836
0.326163
0.324143
0.31674
0.302954
0.282441
0.25505
0.220781
0.180934
0.137286
0.0991538
0.0741706
0.407332
0.411234
0.425325
0.441692
0.454974
0.462377
0.463544
0.458614
0.448594
0.435317
0.419348
0.401725
0.384687
0.369169
0.35681
0.348036
0.342161
0.340021
0.339438
0.337952
0.333172
0.323889
0.309435
0.28925
0.262926
0.230706
0.193563
0.152219
0.114004
0.0863102
0.382547
0.380402
0.393179
0.411113
0.427615
0.439092
0.444638
0.444044
0.438091
0.428329
0.415817
0.401858
0.387279
0.37492
0.365868
0.36002
0.355921
0.353564
0.351163
0.347045
0.339798
0.328854
0.313846
0.293711
0.268481
0.238421
0.204025
0.165061
0.127752
0.0982449
0.353063
0.346223
0.357551
0.376334
0.395557
0.410771
0.420547
0.424114
0.422461
0.4166
0.407957
0.397449
0.386421
0.377547
0.372092
0.369267
0.366794
0.364161
0.360106
0.353696
0.344386
0.332279
0.31648
0.296501
0.272395
0.244639
0.212269
0.175652
0.139726
0.109523
0.324855
0.312168
0.321221
0.339989
0.361122
0.379484
0.393023
0.400428
0.402891
0.401093
0.396466
0.38982
0.382574
0.377598
0.375791
0.375931
0.374858
0.37191
0.366411
0.35813
0.347372
0.334064
0.317797
0.298153
0.275401
0.249313
0.218591
0.184084
0.149698
0.119504
0.299463
0.28031
0.286171
0.303871
0.325975
0.346767
0.363437
0.3746
0.380803
0.3828
0.382168
0.379491
0.376269
0.375303
0.377205
0.380129
0.380191
0.376922
0.370254
0.360741
0.348693
0.334511
0.318188
0.299114
0.277773
0.252555
0.223208
0.19054
0.1577
0.12796
0.277723
0.253044
0.254662
0.269914
0.291721
0.313993
0.333149
0.347608
0.357265
0.362901
0.365881
0.367061
0.367983
0.371012
0.376561
0.381988
0.38291
0.379416
0.371995
0.361348
0.348529
0.33424
0.318162
0.300205
0.279402
0.254701
0.226371
0.195245
0.163853
0.134826
0.263346
0.233945
0.229457
0.240554
0.260286
0.282662
0.303427
0.320433
0.333215
0.342179
0.348566
0.353198
0.358118
0.365066
0.374099
0.381661
0.383283
0.379585
0.371627
0.360677
0.347853
0.333847
0.318548
0.301195
0.280388
0.255955
0.228328
0.19843
0.168332
0.140136
0.259927
0.227406
0.214224
0.21895
0.234178
0.254656
0.275675
0.294271
0.309494
0.321392
0.330826
0.338656
0.347215
0.357914
0.370126
0.379456
0.381698
0.378136
0.370269
0.359524
0.347141
0.33391
0.319268
0.301772
0.280839
0.256421
0.229256
0.200308
0.171335
0.144002
0.26707
0.233597
0.213709
0.208624
0.216456
0.232365
0.251621
0.270466
0.287186
0.301346
0.313456
0.324223
0.335905
0.350074
0.365074
0.375868
0.378739
0.375643
0.368443
0.358574
0.347144
0.334504
0.319827
0.302079
0.280846
0.256286
0.229265
0.201065
0.17305
0.146558
0.285485
0.251316
0.226071
0.212071
0.210183
0.218589
0.233454
0.250566
0.267494
0.283017
0.297269
0.310619
0.325247
0.342209
0.359618
0.371696
0.375345
0.373251
0.367451
0.358847
0.348039
0.335216
0.320542
0.302363
0.280725
0.255905
0.228876
0.200986