/*--------------------------------*- C++ -*----------------------------------*\
| =========                 |                                                 |
| \\      /  F ield         | OpenFOAM: The Open Source CFD Toolbox           |
|  \\    /   O peration     | Version:  5.0                                   |
|   \\  /    A nd           | Web:      www.OpenFOAM.org                      |
|    \\/     M anipulation  |                                                 |
\*---------------------------------------------------------------------------*/
FoamFile
{
    version     2.0;
    format      ascii;
    class       volScalarField;
    location    "1900/air";
    object      nut;
}
// * * * * * * * * * * * * * * * * * * * * * * * * * * * * * * * * * * * * * //

dimensions      [0 2 -1 0 0 0 0];

internalField   nonuniform List<scalar> 
243000
(
0.000145453
0.000147833
0.000144787
0.000140211
0.00013464
0.000128582
0.000122318
0.000116067
0.000109984
0.000104212
9.88357e-05
9.39097e-05
8.94077e-05
8.53594e-05
8.17565e-05
7.86631e-05
7.61246e-05
7.42833e-05
7.29295e-05
7.2855e-05
7.46125e-05
7.34234e-05
7.43221e-05
7.17252e-05
7.08979e-05
6.87903e-05
0.000301709
0.000276744
0.000278435
7.64976e-05
0.000633958
0.000670733
0.000678368
0.000676664
0.000669083
0.000657479
0.000643071
0.000626764
0.000609134
0.000590711
0.000571812
0.000552731
0.000533489
0.000514555
0.00049624
0.000479032
0.00046323
0.000449916
0.000440341
0.00043303
0.000422489
0.000419141
0.000404387
0.000393737
0.00037141
0.000349279
0.000324835
0.00029449
0.000281898
0.00031663
0.000683918
0.00072112
0.000731277
0.00073046
0.000722989
0.000711059
0.00069605
0.000678921
0.000660308
0.000640826
0.00062081
0.000600609
0.000580319
0.000560508
0.000541553
0.000523985
0.000508074
0.000494869
0.000484618
0.00047685
0.000469739
0.000462023
0.000450899
0.000435636
0.000415157
0.00038983
0.000359717
0.000324854
0.000300912
0.000320941
0.000706495
0.000745027
0.000758115
0.000759908
0.000754384
0.000743939
0.00072999
0.000713541
0.000695287
0.000675896
0.00065579
0.000635421
0.000614961
0.000595061
0.000576175
0.000558887
0.000543447
0.000530817
0.00052087
0.000512983
0.000505659
0.000497228
0.000485788
0.000469919
0.000449035
0.000422805
0.000391083
0.000354697
0.000325497
0.000322757
0.000710805
0.000749343
0.000767694
0.000773376
0.000770879
0.000762915
0.000750929
0.000736004
0.000718887
0.000700322
0.000680807
0.000660894
0.000640843
0.000621394
0.000603041
0.000586441
0.000571806
0.000559972
0.000550515
0.000542625
0.00053489
0.000525868
0.000513928
0.00049775
0.000476697
0.000450328
0.000418414
0.000381779
0.000350101
0.000331134
0.000702841
0.000741929
0.000764912
0.000775327
0.000776698
0.00077181
0.00076235
0.000749473
0.000734002
0.000716768
0.00069831
0.000679282
0.000660038
0.000641417
0.000623888
0.000608242
0.000594607
0.000583672
0.000574753
0.00056691
0.000558816
0.000549242
0.000536832
0.000520436
0.000499399
0.000473249
0.000441711
0.000405363
0.000372516
0.000346273
0.000684772
0.000726394
0.000753974
0.000768956
0.000774515
0.000773229
0.000766528
0.000755956
0.000742527
0.000726993
0.000709933
0.000692105
0.000673949
0.000656408
0.00063991
0.000625382
0.00061286
0.000602849
0.000594478
0.000586718
0.000578338
0.000568294
0.000555482
0.000538932
0.00051803
0.000492259
0.000461313
0.000425564
0.000392189
0.000362099
0.000658221
0.000704052
0.000736318
0.000756077
0.000766061
0.000768584
0.000765204
0.000757307
0.000745866
0.000732216
0.00071683
0.000700445
0.000683589
0.000667273
0.000651966
0.00063865
0.000627297
0.000618202
0.000610366
0.000602728
0.000594144
0.000583732
0.000570599
0.000553961
0.00053326
0.000507942
0.000477712
0.000442912
0.000409428
0.00037783
0.000625447
0.000676301
0.000713464
0.000738074
0.000752627
0.000759072
0.00075916
0.000754208
0.000745435
0.000733733
0.000719916
0.000705124
0.000689706
0.000674729
0.000660703
0.000648649
0.000638473
0.000630262
0.000622949
0.000615469
0.000606768
0.000596096
0.000582742
0.00056608
0.000545624
0.000520823
0.000491257
0.00045748
0.000424124
0.000391152
0.000593131
0.000646647
0.000687419
0.000716314
0.000735293
0.00074573
0.000749374
0.000747567
0.000741446
0.000732028
0.000720242
0.000706863
0.000692912
0.000679338
0.000666638
0.000655851
0.000646823
0.000639455
0.000632647
0.000625362
0.000616628
0.00060581
0.00059234
0.00057573
0.000555572
0.000531272
0.000502185
0.000469662
0.000436679
0.000403091
0.000562944
0.000616339
0.00066062
0.000693147
0.000715324
0.000729482
0.000736634
0.000738026
0.000734682
0.000727629
0.000717806
0.000706272
0.000693787
0.000681555
0.000670185
0.000660637
0.000652702
0.000646128
0.000639808
0.00063275
0.000624068
0.000613213
0.000599739
0.00058327
0.000563449
0.000539494
0.00051086
0.000479744
0.000447374
0.000413445
0.000538588
0.000585877
0.000632597
0.000668984
0.000694783
0.000711792
0.00072177
0.000726162
0.000725632
0.00072101
0.000713269
0.000703491
0.000692582
0.000681804
0.000671696
0.000663323
0.000656401
0.000650578
0.000644721
0.000637923
0.000629374
0.000618592
0.000605239
0.000589002
0.000569426
0.000545798
0.000517719
0.000488048
0.000456423
0.00042245
0.000525478
0.000557484
0.000603443
0.000643357
0.000673144
0.000693498
0.000706151
0.000712705
0.000714762
0.000712566
0.000706945
0.000698993
0.00068966
0.000680283
0.000671439
0.000664177
0.000658192
0.000653042
0.000647638
0.00064113
0.000632794
0.000622218
0.000609064
0.000593021
0.000573703
0.000550408
0.000523554
0.000495031
0.000464109
0.000430264
0.000528946
0.000536439
0.000574628
0.000616226
0.000650009
0.000674174
0.000689936
0.000698937
0.000702818
0.000702733
0.000699162
0.000693048
0.000685293
0.000677289
0.000669658
0.000663428
0.000658259
0.000653745
0.000648789
0.000642629
0.000634564
0.000624189
0.000611247
0.000595469
0.000576441
0.000553523
0.000528196
0.000500812
0.000470587
0.000436995
0.000550644
0.0005307
0.000550518
0.000588692
0.000625326
0.000653492
0.000672803
0.000684619
0.000690628
0.00069217
0.000690298
0.000685916
0.000679721
0.000673043
0.000666564
0.000661286
0.000656871
0.000652912
0.000648341
0.000642439
0.000634626
0.000624529
0.000611876
0.000596427
0.000577773
0.000555748
0.000531798
0.000505499
0.000475962
0.000442712
0.000585928
0.00054773
0.000539489
0.000564369
0.000599985
0.000631415
0.0006545
0.000669512
0.000677981
0.00068138
0.000680937
0.000677916
0.000673159
0.000667748
0.000662348
0.000657939
0.000654199
0.000650743
0.000646567
0.000641008
0.000633468
0.000623636
0.000611253
0.000596101
0.00057784
0.000557211
0.00053449
0.000509195
0.000480315
0.000447491
0.000628592
0.000584914
0.000551527
0.000550915
0.000577012
0.000608696
0.000635031
0.00065345
0.0006647
0.000670219
0.000671395
0.00066952
0.000665872
0.000661603
0.00065719
0.000653568
0.000650435
0.000647434
0.000643632
0.000638426
0.000631252
0.000621726
0.000609654
0.000594843
0.000577389
0.000557997
0.000536377
0.000511992
0.00048372
0.000451401
0.000672823
0.000631349
0.000586573
0.000558221
0.00056288
0.000587836
0.000615061
0.000636484
0.000650681
0.000658568
0.000661546
0.000661013
0.000658263
0.000654837
0.000651275
0.000648351
0.000645761
0.000643172
0.000639735
0.000634878
0.000628091
0.000618976
0.000607255
0.000592932
0.00057657
0.000558206
0.00053756
0.00051398
0.000486252
0.000454447
0.000714425
0.000677617
0.000633127
0.000588736
0.000566021
0.000574037
0.000596564
0.000619171
0.000635998
0.000646367
0.000651318
0.000652282
0.000650598
0.000647772
0.000644821
0.000642474
0.000640353
0.000638141
0.000635062
0.000630568
0.000624176
0.000615504
0.000604247
0.00059087
0.000575459
0.000557973
0.00053815
0.000515259
0.000487992
0.000456737
0.00075449
0.000721723
0.00068126
0.000633424
0.000590784
0.000573756
0.000583368
0.000602993
0.000621101
0.000633696
0.000640687
0.000643258
0.000642789
0.000640726
0.000638178
0.00063617
0.000634414
0.000632535
0.000629805
0.000625684
0.000619705
0.000611523
0.000601157
0.000588677
0.000574121
0.000557413
0.000538253
0.000515937
0.00048904
0.000458364
0.000792908
0.000763132
0.000726766
0.000681514
0.000631003
0.000592061
0.000580632
0.000590744
0.000607078
0.000620911
0.000629734
0.000633941
0.000634776
0.000633623
0.000631623
0.000629807
0.000628196
0.000626576
0.00062417
0.000620428
0.000614994
0.000607595
0.000598071
0.000586415
0.000572639
0.000556628
0.000538029
0.000516141
0.000489509
0.000459447
0.000829469
0.00080204
0.000768798
0.000727259
0.000676732
0.000625546
0.000592466
0.000586074
0.000595862
0.000608798
0.000618742
0.000624421
0.000626565
0.000626432
0.000625115
0.000623638
0.000622233
0.000620758
0.000618639
0.000615341
0.000610482
0.000603793
0.000595056
0.000584187
0.000571143
0.000555759
0.000537638
0.000516049
0.000489534
0.000460165
0.000864366
0.000838506
0.00080747
0.000769068
0.000721292
0.000666468
0.000617903
0.000592244
0.000589972
0.000598687
0.000608295
0.000614949
0.000618282
0.000619192
0.000618673
0.000617676
0.000616567
0.000615301
0.000613466
0.000610582
0.000606268
0.000600243
0.000592255
0.000582157
0.000569826
0.000555033
0.000537309
0.00051589
0.000489345
0.000460603
0.000897164
0.000872316
0.000842821
0.000806832
0.000762129
0.000708176
0.00065193
0.000609667
0.000591891
0.000592399
0.000599436
0.000606081
0.000610259
0.000612143
0.000612491
0.000612104
0.000611394
0.000610411
0.000608878
0.000606391
0.000602597
0.000597189
0.000589938
0.000580576
0.000568938
0.000554696
0.00053731
0.000515949
0.000489188
0.000461102
0.000926804
0.000902968
0.000874862
0.000840852
0.000798964
0.000747643
0.000689515
0.000636366
0.000603146
0.00059219
0.000593907
0.00059905
0.000603435
0.000606107
0.000607351
0.000607712
0.00060753
0.000606918
0.000605716
0.000603599
0.000600248
0.000595374
0.000588698
0.000579952
0.000568915
0.000555241
0.00053822
0.000516822
0.000489582
0.000462239
0.000954566
0.000931681
0.000904851
0.00087267
0.000833423
0.000785333
0.000728709
0.000670607
0.00062522
0.000601572
0.000595271
0.000597042
0.000600792
0.000604035
0.000606288
0.000607613
0.000608147
0.000608007
0.000607101
0.000605208
0.000602081
0.000597489
0.000591191
0.000582899
0.000572298
0.000558944
0.000541985
0.000520126
0.000491804
0.000466377
0.000983306
0.000961731
0.000936478
0.000906374
0.000870024
0.000825867
0.000773174
0.000715531
0.000663623
0.000629075
0.000613657
0.000610552
0.000612907
0.000616771
0.000620471
0.000623182
0.000624637
0.000624916
0.000623972
0.000621713
0.000618061
0.000612935
0.000606195
0.000597576
0.000586684
0.000572949
0.000555319
0.000532039
0.000501431
0.000478573
0.0010203
0.00100084
0.000978121
0.000951452
0.000919985
0.000882586
0.000838247
0.000788245
0.000739102
0.000701313
0.00068052
0.000673949
0.000675621
0.000680919
0.000686718
0.000691
0.000692969
0.000692783
0.000690436
0.000686095
0.00067998
0.000672318
0.000663181
0.00065233
0.000639143
0.000622998
0.000602746
0.000575902
0.000539918
0.000517546
0.00109294
0.00107809
0.00106208
0.00104476
0.00102562
0.00100376
0.000977917
0.000948089
0.000916605
0.000890663
0.000875698
0.000871556
0.000874528
0.000881422
0.000888163
0.000892373
0.000893027
0.00089073
0.000885695
0.000878181
0.000868746
0.000857842
0.000845817
0.000832319
0.000815585
0.000795905
0.000772966
0.000743394
0.000704702
0.00067852
0.00133138
0.00132793
0.00132887
0.00132953
0.001329
0.00132668
0.00132171
0.00131428
0.00130248
0.0012915
0.00128403
0.00128027
0.00127947
0.00128225
0.00128502
0.00128672
0.00128595
0.00128495
0.00128343
0.00128189
0.00128022
0.00127883
0.00127762
0.00127604
0.00126832
0.00125866
0.00124865
0.00123351
0.00121269
0.00119419
0.000176399
0.00018243
0.00017995
0.000174802
0.000168143
0.000160684
0.000152906
0.000145153
0.000137625
0.000130476
0.000123767
0.00011758
0.000111918
0.000106894
0.000102526
9.89461e-05
9.62156e-05
9.45664e-05
9.40808e-05
9.44474e-05
9.48236e-05
9.45355e-05
9.25987e-05
8.87459e-05
8.25108e-05
0.000345187
0.000312435
0.000292453
0.000314696
7.93909e-05
0.000684013
0.000771602
0.000747059
0.00069538
0.000637723
0.00058323
0.000534762
0.000492261
0.000454948
0.000422514
0.000394067
0.00036937
0.000347235
0.000328071
0.000311104
0.000296523
0.000282985
0.000272329
0.00026469
0.000261108
0.000261142
0.000262816
0.000261527
0.000253476
0.000237798
0.000227081
0.000246739
0.000295352
0.000332694
0.000323927
0.00108707
0.00125678
0.00126622
0.00121351
0.00113839
0.00105878
0.000983291
0.000914283
0.000851986
0.00079674
0.000747511
0.000704259
0.000665131
0.000631047
0.000601035
0.000574683
0.000549021
0.000526751
0.00050689
0.000491706
0.000482554
0.000477515
0.000469879
0.000453687
0.000424736
0.000384559
0.000351912
0.000340797
0.000373343
0.000401258
0.0013497
0.0015777
0.00162123
0.00158989
0.00152218
0.00144008
0.00135596
0.00127522
0.00119975
0.00113104
0.00106857
0.00101294
0.000962466
0.000918216
0.000879722
0.00084586
0.000812301
0.000781361
0.00075069
0.000723257
0.000702217
0.000686942
0.000670193
0.000643632
0.000602423
0.000545495
0.000482147
0.000423343
0.000410007
0.000420645
0.00148453
0.00172572
0.00182486
0.00183677
0.00179193
0.00172146
0.00164099
0.00155981
0.00148055
0.00140655
0.00133786
0.00127597
0.00121945
0.00116996
0.00112761
0.00109052
0.00105279
0.00101628
0.000977166
0.000939193
0.000906878
0.000880947
0.000854214
0.000818129
0.00076724
0.000699193
0.000618199
0.000529451
0.000474384
0.000451896
0.00156011
0.00180296
0.00193726
0.00198213
0.00196795
0.00191705
0.00184729
0.00177439
0.00169781
0.00162535
0.00155615
0.00149305
0.00143526
0.00138485
0.00134232
0.00130522
0.00126638
0.00122658
0.00118115
0.00113463
0.00109257
0.00105681
0.00102079
0.000976796
0.000918638
0.000843117
0.000752349
0.000647594
0.000563413
0.000513395
0.00158936
0.00182732
0.00197805
0.00205167
0.00206736
0.00204353
0.00199525
0.00192895
0.00185783
0.00179364
0.00172831
0.00166817
0.00161308
0.00156547
0.00152538
0.00149123
0.00145327
0.00141179
0.00136187
0.00130871
0.0012587
0.00121383
0.00117026
0.00112011
0.00105692
0.000976831
0.00088054
0.000768161
0.000665332
0.000590307
0.00157808
0.00179351
0.00195743
0.00205848
0.00210488
0.00210767
0.00208161
0.00203397
0.00198044
0.00192022
0.00185931
0.00180615
0.00175661
0.00171455
0.00167927
0.00164992
0.00161462
0.00157278
0.00151995
0.00146201
0.00140548
0.0013543
0.00130424
0.00124906
0.00118254
0.00110009
0.0010015
0.000885703
0.000771155
0.000673781
0.00149793
0.00170266
0.00188258
0.00201179
0.00209019
0.00212079
0.00211932
0.0020951
0.0020574
0.00201019
0.00196178
0.0019124
0.00186978
0.00183501
0.00180654
0.00178338
0.00175193
0.00171085
0.00165665
0.00159584
0.00153589
0.00147972
0.00142506
0.00136567
0.00129663
0.00121327
0.00111497
0.000998055
0.000875585
0.000757994
0.0013682
0.00156072
0.00176015
0.00191846
0.00203108
0.00209149
0.00211782
0.00211789
0.00209996
0.0020684
0.00203148
0.00199229
0.0019567
0.00192976
0.00190962
0.00189346
0.00186672
0.0018275
0.00177312
0.00171101
0.00164801
0.00158888
0.00153121
0.00147056
0.0014002
0.00131786
0.0012202
0.00110385
0.000975944
0.000839499
0.00124128
0.00139511
0.00159331
0.0017829
0.00193448
0.00202612
0.00208289
0.00210857
0.00211188
0.00209788
0.00207443
0.00204679
0.00202023
0.00200288
0.00199084
0.00198184
0.00196071
0.00192405
0.00187074
0.00180871
0.00174463
0.00168306
0.00162434
0.00156389
0.0014956
0.00141254
0.0013165
0.00119997
0.0010672
0.000916233
0.00113717
0.00123433
0.0014096
0.00161108
0.00179305
0.0019279
0.00201899
0.00207178
0.00209699
0.00210176
0.00209358
0.00207892
0.00206339
0.00205502
0.002052
0.00205033
0.00203522
0.00200181
0.00195065
0.00189001
0.00182676
0.0017654
0.001707
0.00164639
0.00157829
0.00149624
0.00140446
0.00128644
0.00114797
0.000985333
0.00106572
0.00110032
0.00123388
0.00142564
0.0016239
0.00179336
0.00192275
0.00201097
0.00205871
0.00208311
0.00209154
0.00209111
0.00208757
0.00208938
0.00209502
0.00210075
0.00209148
0.00206188
0.00201401
0.00195627
0.00189482
0.00183437
0.00177531
0.0017157
0.00164883
0.00156991
0.00147947
0.00136065
0.00121743
0.00104528
0.00105225
0.00101182
0.00108893
0.00124857
0.00144487
0.00163635
0.00179711
0.00191826
0.00199895
0.00204494
0.00207069
0.00208549
0.00209472
0.00210719
0.00212164
0.00213444
0.00213139
0.002106
0.00206193
0.00200706
0.00194546
0.00188457
0.00182677
0.00177115
0.00170741
0.00163505
0.0015431
0.00142273
0.0012752
0.00109529
0.00108745
0.0009918
0.0010001
0.00110557
0.00127603
0.0014719
0.00165336
0.00180152
0.00191213
0.00198768
0.00203386
0.00206384
0.00208658
0.00211009
0.002133
0.0021528
0.00215618
0.00213604
0.00209629
0.00204561
0.00198808
0.00192704
0.0018689
0.001813
0.00175498
0.00168775
0.00159498
0.00147291
0.00132137
0.00113495
0.00117793
0.00103693
0.000975331
0.00101916
0.0011412
0.00131741
0.00150408
0.00167044
0.00180572
0.0019081
0.00198013
0.00202848
0.00206483
0.00209932
0.00213044
0.00215726
0.00216725
0.00215326
0.00211856
0.00207271
0.00201951
0.00196298
0.0019052
0.00184956
0.00179658
0.00172906
0.0016355
0.00151167
0.0013564
0.00116449
0.00132947
0.0011561
0.00103626
0.000997284
0.00106176
0.00119206
0.00136376
0.00153597
0.00168799
0.00181244
0.00190796
0.00197896
0.00203113
0.00207644
0.00211562
0.00214932
0.0021661
0.002159
0.00213003
0.00208972
0.00204153
0.00199018
0.00193647
0.00188374
0.0018295
0.00176061
0.00166582
0.00153993
0.00138107
0.00118455
0.00153865
0.00134506
0.00118114
0.0010721
0.00104627
0.00111816
0.00125007
0.00141086
0.00156844
0.00170779
0.00182256
0.00191383
0.00198534
0.00204294
0.00209029
0.0021307
0.00215435
0.00215476
0.00213229
0.00209829
0.00205624
0.00201087
0.00196464
0.00191457
0.00185625
0.00178422
0.00168745
0.00155895
0.00139648
0.00119598
0.0017967
0.00159198
0.00139877
0.00123355
0.0011283
0.00111
0.00118263
0.00131015
0.00145806
0.00160233
0.00173
0.00183754
0.00192607
0.00199971
0.0020565
0.00210331
0.00213392
0.00214229
0.00212752
0.00210078
0.00206661
0.00202876
0.00198896
0.00193927
0.00187779
0.00180142
0.0017015
0.00157009
0.00140384
0.00119979
0.00209051
0.00188067
0.00166906
0.00146458
0.00129312
0.00119015
0.00117691
0.00125012
0.00136952
0.00150531
0.00163716
0.00175519
0.00185695
0.00194401
0.00201369
0.00206907
0.00210683
0.0021236
0.00211826
0.0020998
0.00207339
0.00204264
0.0020066
0.00195757
0.00189409
0.00181356
0.00171029
0.0015753
0.00140478
0.00119704
0.00240255
0.00219158
0.00196891
0.0017388
0.00151961
0.00134441
0.00124777
0.00124126
0.00131461
0.0014267
0.00155142
0.00167214
0.00178149
0.0018779
0.00195789
0.00202309
0.00206962
0.00209529
0.00209983
0.00209006
0.00207115
0.00204682
0.00201469
0.00196709
0.00190397
0.0018227
0.00171582
0.00157659
0.00140114
0.00118869
0.00270985
0.00250055
0.00227251
0.00202739
0.00177753
0.00154961
0.00138032
0.00129532
0.00130066
0.00137366
0.00147938
0.00159257
0.00170164
0.00180086
0.00188557
0.00195567
0.00200817
0.00204174
0.00205636
0.00205676
0.00204738
0.00203021
0.00200454
0.00196421
0.00190518
0.00182319
0.0017151
0.00157372
0.00139389
0.00117759
0.00298322
0.00277833
0.00255067
0.00230003
0.00203437
0.00177377
0.00155076
0.00139682
0.00133286
0.00134964
0.00141925
0.00151454
0.00161251
0.00170416
0.00178272
0.00184949
0.00190146
0.00193872
0.00196208
0.0019747
0.00197918
0.00197636
0.00196477
0.00193871
0.00189178
0.00181611
0.00170549
0.00156245
0.00138194
0.00116354
0.00318593
0.00299006
0.00277006
0.0025239
0.00225624
0.0019812
0.00172494
0.00151845
0.00139073
0.00134689
0.00136631
0.00142392
0.00149466
0.00156316
0.00162238
0.00167372
0.0017161
0.00175242
0.00178216
0.00180801
0.00182989
0.00184716
0.00185725
0.00185453
0.00183133
0.001778
0.00168129
0.00154087
0.00136039
0.00114332
0.00327606
0.00309701
0.0028944
0.00266416
0.0024079
0.00213466
0.00186392
0.00162305
0.00144319
0.00133869
0.00129986
0.00130384
0.00133127
0.00136451
0.00139787
0.00142993
0.0014602
0.00149084
0.00152259
0.00155625
0.00159078
0.00162555
0.00165779
0.00168193
0.00168989
0.00167091
0.0016101
0.00149237
0.0013253
0.00111562
0.00322086
0.00307076
0.00289775
0.00269611
0.00246483
0.00220928
0.00194423
0.00169341
0.00148608
0.0013401
0.00125435
0.00121334
0.00120629
0.00121793
0.00124068
0.00126647
0.0012905
0.00131395
0.00133902
0.00136441
0.00139135
0.00142064
0.00145145
0.00148038
0.00150119
0.00150443
0.00147573
0.00139661
0.00125713
0.00108289
0.00303579
0.00292983
0.00280182
0.00264482
0.00245652
0.00224161
0.00201348
0.00179386
0.0016059
0.0014653
0.00137209
0.00132249
0.00131074
0.00132336
0.00135064
0.00137921
0.00140109
0.00141887
0.00143281
0.00144219
0.00144867
0.001454
0.00145889
0.00146183
0.00145902
0.00144368
0.001404
0.00132439
0.00118901
0.00102945
0.00285942
0.00280762
0.00273342
0.00263155
0.00250063
0.00234693
0.00218329
0.00202501
0.00188649
0.00177782
0.00170243
0.00166435
0.00165667
0.00167036
0.00169603
0.00172214
0.00174095
0.00175645
0.00176605
0.00177025
0.00176977
0.00176552
0.00175784
0.00174432
0.00172106
0.00168182
0.00161519
0.00150352
0.00133312
0.00114303
0.00277681
0.00275831
0.00273498
0.00269111
0.00262243
0.0025349
0.00243323
0.00233011
0.00223413
0.0021533
0.00209447
0.00206036
0.00204698
0.00204987
0.00206133
0.0020762
0.00208864
0.00210146
0.00211241
0.00212242
0.00213154
0.00213904
0.00214509
0.00214551
0.00213656
0.00211317
0.00206516
0.00197675
0.00183897
0.00169357
0.00276568
0.00276537
0.00276521
0.00274864
0.00271294
0.00266671
0.00261032
0.00254792
0.00248521
0.00243158
0.00238739
0.00235498
0.00233445
0.0023255
0.00232317
0.00232836
0.00233596
0.00234759
0.00236255
0.00238145
0.00240355
0.00242815
0.00245155
0.00247314
0.00249035
0.00250104
0.00249807
0.00247505
0.00243749
0.00239515
0.000203002
0.000209134
0.000204812
0.000198554
0.000190904
0.000182437
0.000173644
0.000164893
0.0001564
0.000148336
0.000140754
0.000133754
0.000127315
0.000121591
0.000116609
0.000112581
0.000109645
0.000108469
0.000109475
0.000111851
0.000113847
0.000114091
0.000111742
0.000106249
9.72055e-05
8.41218e-05
6.99813e-05
0.000300958
7.4565e-05
8.02996e-05
0.000880026
0.00100888
0.00101252
0.000957136
0.000884976
0.000813822
0.000749031
0.000692091
0.000641824
0.000597696
0.000558072
0.000522718
0.000489463
0.000459535
0.000431239
0.000405266
0.000379732
0.000362224
0.000354815
0.000358441
0.000369179
0.000380259
0.000381409
0.000365276
0.000331833
0.000286703
0.000238479
0.000289116
0.000274201
0.000316425
0.00141289
0.00166015
0.00172054
0.00168098
0.00159828
0.00150194
0.00140532
0.00131483
0.00123149
0.00115596
0.00108653
0.00102336
0.000963349
0.000908728
0.000857749
0.000809694
0.00076047
0.000721815
0.000694976
0.000684157
0.00068758
0.00069601
0.000689237
0.000659056
0.000601398
0.000518825
0.000424551
0.000371134
0.000371212
0.000434231
0.00180795
0.00210319
0.00220501
0.00219708
0.00212796
0.00203333
0.00192917
0.00182548
0.00172588
0.00163282
0.00154548
0.00146488
0.00138819
0.0013179
0.00125309
0.00119164
0.00112712
0.00107113
0.00102527
0.000996844
0.000986237
0.000983938
0.00096947
0.00092727
0.000850726
0.000742269
0.000613629
0.00049377
0.000445244
0.000475717
0.0020726
0.0023763
0.002518
0.00254736
0.00250157
0.00242179
0.00232365
0.00222011
0.00211592
0.00201607
0.00192052
0.00183151
0.00174628
0.00166832
0.00159744
0.00152958
0.00145558
0.0013854
0.0013225
0.00127708
0.00125205
0.00123825
0.00121466
0.00116378
0.00107632
0.000952588
0.000802498
0.000643873
0.000543415
0.000526654
0.00223255
0.00252126
0.00269114
0.00275888
0.00275162
0.00269524
0.00261054
0.00251661
0.00241539
0.0023172
0.00222075
0.00213027
0.00204349
0.00196462
0.00189326
0.00182406
0.00174414
0.00166193
0.00158396
0.00152358
0.00148452
0.00145991
0.00142892
0.00137192
0.00127932
0.00114858
0.000987467
0.000807387
0.000668839
0.000610315
0.00235119
0.00261947
0.00279289
0.00288308
0.0029049
0.00287858
0.00281699
0.0027319
0.00263689
0.00254844
0.00245644
0.00237022
0.00228759
0.00221342
0.00214562
0.00207887
0.00199514
0.00190275
0.00181195
0.00173854
0.00168746
0.00165247
0.00161514
0.00155608
0.00146184
0.0013301
0.00116596
0.000975945
0.000812063
0.000718733
0.00243297
0.00265057
0.00281928
0.00292802
0.00297818
0.00298069
0.00294584
0.00288277
0.00280993
0.00272478
0.00263578
0.00255968
0.00248503
0.00241968
0.00235942
0.0022976
0.00221159
0.00211085
0.0020095
0.00192517
0.0018638
0.00181956
0.00177662
0.00171744
0.0016258
0.00149792
0.00133666
0.0011456
0.00096374
0.00084035
0.00242272
0.00260985
0.00277671
0.00290466
0.00298365
0.003016
0.00301044
0.00297317
0.00291868
0.00285063
0.00278112
0.00270741
0.0026416
0.00258844
0.00253874
0.00248334
0.00239655
0.00228919
0.00217995
0.0020869
0.00201669
0.00196455
0.00191711
0.0018585
0.00177459
0.0016514
0.00149398
0.00130673
0.00111771
0.000965925
0.00233958
0.00250345
0.00267245
0.0028225
0.00293122
0.00299536
0.00301979
0.00301163
0.00297988
0.00293197
0.00287747
0.00281808
0.00276622
0.00272407
0.00268699
0.00263884
0.00255246
0.00244079
0.00232536
0.00222685
0.00214996
0.00209061
0.00204033
0.00198387
0.00190416
0.00178763
0.0016387
0.00145753
0.00126535
0.00108951
0.00223253
0.00236301
0.00252455
0.00268966
0.00282861
0.00292665
0.00298362
0.00300461
0.00299946
0.00297415
0.00293817
0.00289669
0.00285859
0.00283248
0.00280703
0.0027664
0.00268188
0.00256836
0.00244989
0.00234816
0.00226668
0.00220227
0.00215094
0.00209325
0.00201622
0.00190879
0.0017703
0.00159642
0.00140439
0.00121225
0.00212368
0.00220201
0.00234427
0.00251775
0.00268343
0.00281617
0.00290811
0.00296003
0.00298232
0.00298214
0.00296731
0.00294543
0.00292458
0.00291375
0.0029011
0.00286823
0.00278724
0.00267415
0.00255596
0.00245304
0.00236991
0.00230415
0.00224702
0.00218799
0.00211355
0.00201553
0.00188621
0.00171986
0.00152943
0.00132636
0.00203092
0.00203572
0.00214712
0.00231829
0.00250398
0.00266894
0.0027962
0.00288271
0.00293471
0.00296024
0.0029685
0.0029678
0.00296591
0.00297149
0.00297181
0.00294673
0.00287075
0.00276028
0.00264599
0.00254483
0.00245858
0.00238782
0.00232781
0.00226951
0.00219831
0.00211112
0.00198827
0.00182795
0.00163894
0.0014276
0.00195891
0.00189169
0.0019573
0.00210929
0.00230247
0.00249292
0.0026535
0.00277461
0.00285887
0.00291328
0.00294554
0.0029668
0.00298513
0.00300718
0.00302061
0.00300389
0.00293531
0.00282951
0.00271891
0.00261809
0.00253056
0.00245775
0.00239543
0.00233968
0.00227449
0.00219281
0.00207734
0.00192123
0.00173277
0.00151462
0.00196121
0.00181054
0.00180826
0.00191713
0.00209777
0.0023003
0.00248761
0.00264104
0.00275766
0.00284209
0.00290161
0.00294548
0.00298397
0.00302252
0.0030494
0.00304188
0.00298338
0.00288438
0.00278141
0.00268546
0.002598
0.00252368
0.00246033
0.00240295
0.00234325
0.00226342
0.00215216
0.0019996
0.00181091
0.00158677
0.0020265
0.00182851
0.00173638
0.00177602
0.00191715
0.00210982
0.00231032
0.00248946
0.00263599
0.00275014
0.00283741
0.002906
0.00296463
0.00301924
0.00305976
0.0030626
0.0030163
0.00292741
0.00283271
0.00274329
0.00266046
0.00258683
0.00252372
0.00246431
0.00240338
0.00232373
0.00221403
0.00206423
0.00187393
0.00164404
0.00216687
0.00193183
0.00177099
0.00172386
0.00179652
0.00194778
0.00213932
0.00233099
0.00250076
0.00264176
0.00275586
0.0028491
0.00292871
0.0029989
0.00305271
0.00306727
0.00303486
0.00295925
0.00287423
0.00279228
0.00271597
0.00264704
0.0025842
0.00252108
0.00245614
0.00237445
0.00226391
0.00211475
0.00192208
0.00168667
0.00239983
0.00213961
0.00192289
0.00178749
0.00175668
0.00184501
0.00199809
0.00218117
0.00236159
0.00252271
0.00266035
0.00277659
0.00287625
0.00296186
0.0030285
0.00305566
0.00303843
0.00297901
0.00290527
0.00283269
0.00276439
0.00270112
0.00263782
0.00257108
0.00250101
0.00241587
0.00230269
0.00215158
0.00195612
0.00171524
0.00270763
0.00243352
0.00217811
0.00196982
0.00184357
0.00182476
0.00191427
0.00205902
0.00223076
0.00240019
0.0025548
0.00268987
0.00280648
0.00290685
0.00298433
0.00302414
0.00302256
0.00298227
0.00292163
0.00286059
0.00280037
0.00274217
0.00267876
0.00261064
0.00253667
0.00244771
0.00233071
0.00217605
0.0019769
0.0017306
0.00305919
0.00277931
0.00250003
0.00224019
0.00203176
0.00191117
0.00189808
0.00198413
0.00212145
0.00228172
0.0024428
0.00258872
0.00271711
0.00282724
0.00291161
0.00296158
0.00297488
0.00295476
0.00291074
0.00286173
0.00281106
0.0027569
0.00269895
0.00263697
0.00256297
0.00247061
0.00234879
0.00218959
0.00198515
0.00173297
0.00341669
0.00313598
0.00284376
0.00255176
0.00228467
0.00207775
0.00196548
0.00195988
0.00204068
0.00217517
0.00232573
0.00246897
0.00259994
0.00271024
0.00279357
0.00284825
0.00287456
0.00287268
0.00284888
0.00281641
0.00278089
0.002742
0.00269616
0.00264015
0.00256941
0.0024823
0.00235943
0.0021955
0.00198497
0.0017265
0.00373844
0.0034608
0.00316447
0.00285632
0.00255399
0.00228614
0.00208926
0.00199149
0.00199336
0.00206979
0.00219158
0.00231839
0.00243463
0.00253216
0.00260537
0.00265797
0.00269362
0.00270596
0.00270379
0.00269361
0.00267978
0.00266263
0.00263842
0.00260103
0.00254059
0.0024507
0.00233575
0.00217966
0.00197012
0.00171093
0.00398159
0.00371211
0.00342053
0.00311019
0.00279292
0.00248983
0.00223223
0.00205292
0.00196954
0.00197058
0.00203292
0.00211845
0.00220412
0.00227853
0.00233256
0.0023787
0.00241548
0.00244089
0.00245798
0.00247206
0.00248357
0.00249296
0.00249637
0.00248675
0.00245387
0.00238238
0.00227143
0.00212088
0.00192731
0.0016787
0.00410607
0.00385296
0.00357657
0.00327751
0.00296287
0.00264704
0.00235412
0.00211413
0.00195253
0.00187334
0.00185893
0.00188516
0.00192947
0.00197666
0.00202121
0.00206293
0.00210038
0.00213294
0.00216228
0.00219209
0.00222079
0.00224923
0.00227441
0.00228976
0.00228559
0.00224836
0.00216191
0.00202877
0.00184286
0.00161548
0.0040861
0.00386105
0.00361283
0.00333945
0.00304417
0.00273658
0.0024349
0.00216514
0.00195438
0.00181523
0.0017385
0.00171556
0.00173061
0.00176543
0.00181458
0.00186056
0.00189939
0.0019317
0.00196237
0.00198952
0.00201428
0.00203834
0.00206098
0.00207784
0.00208141
0.00206092
0.0020021
0.00188988
0.00173446
0.00153321
0.00393159
0.00375089
0.00354757
0.00331707
0.00306014
0.00278459
0.00250578
0.00224759
0.00203573
0.00188118
0.00178273
0.0017449
0.00175273
0.00178952
0.00184658
0.00189692
0.00193406
0.00196157
0.00198392
0.00199765
0.00200491
0.00200761
0.00200652
0.00199945