/*--------------------------------*- C++ -*----------------------------------*\
| =========                 |                                                 |
| \\      /  F ield         | OpenFOAM: The Open Source CFD Toolbox           |
|  \\    /   O peration     | Version:  5.0                                   |
|   \\  /    A nd           | Web:      www.OpenFOAM.org                      |
|    \\/     M anipulation  |                                                 |
\*---------------------------------------------------------------------------*/
FoamFile
{
    version     2.0;
    format      ascii;
    class       volScalarField;
    location    "1900/air";
    object      T;
}
// * * * * * * * * * * * * * * * * * * * * * * * * * * * * * * * * * * * * * //

dimensions      [0 0 0 1 0 0 0];

internalField   nonuniform List<scalar> 
243000
(
300.46
300.452
300.447
300.442
300.437
300.432
300.426
300.421
300.416
300.41
300.404
300.398
300.392
300.385
300.378
300.371
300.364
300.355
300.346
300.334
300.321
300.307
300.292
300.279
300.268
300.261
300.262
300.423
301.234
301.452
300.456
300.448
300.442
300.437
300.431
300.426
300.421
300.416
300.41
300.405
300.399
300.393
300.387
300.38
300.374
300.366
300.359
300.35
300.341
300.33
300.317
300.303
300.29
300.277
300.265
300.258
300.256
300.321
300.781
301.166
300.453
300.444
300.438
300.432
300.427
300.422
300.417
300.412
300.406
300.401
300.395
300.389
300.383
300.376
300.369
300.362
300.355
300.346
300.337
300.326
300.314
300.301
300.288
300.275
300.264
300.255
300.252
300.278
300.438
300.831
300.451
300.442
300.435
300.429
300.424
300.418
300.413
300.408
300.402
300.397
300.391
300.385
300.379
300.372
300.365
300.358
300.35
300.342
300.333
300.323
300.311
300.299
300.286
300.273
300.262
300.253
300.248
300.258
300.316
300.516
300.451
300.441
300.433
300.427
300.421
300.415
300.41
300.404
300.399
300.393
300.387
300.381
300.375
300.368
300.361
300.354
300.347
300.338
300.329
300.319
300.308
300.296
300.284
300.272
300.261
300.252
300.246
300.248
300.269
300.343
300.451
300.441
300.432
300.425
300.418
300.413
300.407
300.401
300.396
300.39
300.384
300.378
300.371
300.365
300.358
300.35
300.343
300.335
300.326
300.316
300.305
300.294
300.282
300.271
300.26
300.251
300.245
300.244
300.251
300.298
300.453
300.442
300.432
300.424
300.417
300.411
300.404
300.399
300.393
300.387
300.381
300.375
300.368
300.361
300.354
300.347
300.339
300.331
300.322
300.313
300.303
300.292
300.281
300.27
300.26
300.251
300.244
300.242
300.243
300.278
300.458
300.443
300.433
300.424
300.416
300.409
300.403
300.396
300.39
300.384
300.378
300.372
300.365
300.358
300.351
300.344
300.336
300.328
300.319
300.31
300.3
300.29
300.28
300.269
300.26
300.251
300.244
300.24
300.24
300.267
300.466
300.446
300.434
300.424
300.415
300.408
300.401
300.395
300.388
300.382
300.376
300.369
300.363
300.356
300.348
300.341
300.333
300.325
300.316
300.307
300.298
300.288
300.279
300.269
300.259
300.251
300.244
300.24
300.238
300.261
300.483
300.452
300.436
300.424
300.415
300.407
300.4
300.393
300.386
300.38
300.374
300.367
300.36
300.353
300.346
300.338
300.33
300.322
300.314
300.305
300.296
300.287
300.277
300.268
300.259
300.251
300.245
300.24
300.237
300.258
300.513
300.464
300.44
300.426
300.416
300.407
300.399
300.392
300.385
300.378
300.372
300.365
300.358
300.351
300.343
300.336
300.328
300.319
300.311
300.303
300.294
300.285
300.276
300.268
300.259
300.252
300.245
300.24
300.237
300.257
300.557
300.486
300.449
300.43
300.417
300.407
300.399
300.391
300.384
300.377
300.37
300.363
300.356
300.349
300.341
300.333
300.325
300.317
300.309
300.301
300.292
300.284
300.276
300.267
300.259
300.252
300.246
300.24
300.237
300.257
300.617
300.522
300.466
300.437
300.42
300.408
300.399
300.39
300.383
300.376
300.369
300.362
300.354
300.347
300.339
300.331
300.323
300.315
300.307
300.299
300.291
300.283
300.275
300.267
300.259
300.252
300.246
300.241
300.237
300.257
300.688
300.578
300.497
300.451
300.426
300.41
300.399
300.39
300.382
300.375
300.368
300.36
300.353
300.345
300.338
300.329
300.321
300.313
300.305
300.297
300.289
300.282
300.274
300.266
300.259
300.253
300.247
300.241
300.237
300.259
300.761
300.655
300.548
300.477
300.438
300.416
300.401
300.391
300.382
300.374
300.367
300.359
300.352
300.344
300.336
300.328
300.32
300.312
300.304
300.296
300.288
300.281
300.273
300.266
300.259
300.253
300.247
300.241
300.238
300.262
300.826
300.743
300.625
300.524
300.461
300.426
300.406
300.393
300.383
300.374
300.366
300.358
300.351
300.343
300.335
300.327
300.318
300.31
300.302
300.295
300.287
300.28
300.273
300.266
300.259
300.253
300.247
300.241
300.238
300.265
300.878
300.825
300.721
300.597
300.503
300.446
300.415
300.396
300.384
300.374
300.366
300.358
300.35
300.342
300.334
300.326
300.317
300.309
300.301
300.294
300.286
300.279
300.272
300.266
300.259
300.253
300.247
300.242
300.239
300.269
300.917
300.888
300.814
300.693
300.569
300.482
300.432
300.404
300.387
300.375
300.366
300.357
300.349
300.341
300.333
300.325
300.317
300.308
300.301
300.293
300.286
300.279
300.272
300.266
300.259
300.253
300.247
300.242
300.239
300.274
300.948
300.931
300.887
300.791
300.659
300.54
300.463
300.419
300.394
300.378
300.367
300.357
300.349
300.341
300.333
300.324
300.316
300.308
300.3
300.292
300.285
300.278
300.272
300.266
300.259
300.253
300.248
300.242
300.24
300.28
300.976
300.964
300.937
300.873
300.757
300.62
300.511
300.444
300.405
300.383
300.369
300.358
300.349
300.341
300.332
300.324
300.316
300.308
300.3
300.292
300.285
300.278
300.272
300.265
300.259
300.253
300.248
300.242
300.24
300.287
301.002
300.992
300.974
300.933
300.845
300.712
300.579
300.483
300.425
300.393
300.373
300.36
300.35
300.341
300.332
300.324
300.316
300.307
300.3
300.292
300.285
300.278
300.272
300.265
300.259
300.253
300.248
300.242
300.241
300.295
301.029
301.019
301.004
300.975
300.914
300.802
300.661
300.538
300.456
300.408
300.381
300.363
300.351
300.341
300.332
300.324
300.316
300.307
300.3
300.292
300.285
300.278
300.272
300.265
300.259
300.253
300.248
300.242
300.242
300.304
301.056
301.046
301.032
301.009
300.964
300.877
300.746
300.606
300.499
300.432
300.392
300.369
300.354
300.343
300.333
300.324
300.316
300.308
300.3
300.292
300.285
300.278
300.272
300.265
300.259
300.253
300.248
300.242
300.243
300.315
301.085
301.073
301.058
301.037
301.002
300.936
300.823
300.681
300.553
300.464
300.41
300.379
300.359
300.345
300.334
300.325
300.316
300.308
300.3
300.292
300.285
300.278
300.272
300.265
300.259
300.253
300.248
300.242
300.244
300.328
301.114
301.1
301.084
301.063
301.033
300.98
300.886
300.753
300.614
300.505
300.435
300.392
300.366
300.349
300.337
300.326
300.317
300.309
300.301
300.293
300.286
300.279
300.272
300.266
300.26
300.254
300.248
300.243
300.246
300.345
301.143
301.127
301.108
301.086
301.057
301.012
300.935
300.817
300.677
300.553
300.465
300.41
300.377
300.355
300.34
300.328
300.318
300.309
300.301
300.293
300.286
300.279
300.272
300.266
300.26
300.254
300.248
300.243
300.249
300.381
301.168
301.149
301.127
301.103
301.073
301.032
300.967
300.864
300.732
300.601
300.499
300.432
300.389
300.361
300.343
300.329
300.318
300.309
300.3
300.292
300.285
300.278
300.272
300.265
300.259
300.253
300.247
300.242
300.254
300.45
301.174
301.15
301.124
301.096
301.064
301.025
300.968
300.879
300.758
300.629
300.521
300.443
300.392
300.359
300.337
300.321
300.309
300.299
300.291
300.284
300.277
300.271
300.265
300.259
300.254
300.248
300.243
300.239
300.26
300.537
301.075
301.045
301.016
300.986
300.952
300.911
300.858
300.782
300.681
300.569
300.47
300.396
300.346
300.312
300.289
300.273
300.262
300.254
300.247
300.242
300.238
300.234
300.231
300.228
300.224
300.221
300.218
300.217
300.252
300.586
300.517
300.506
300.501
300.492
300.476
300.454
300.426
300.387
300.338
300.284
300.237
300.2
300.173
300.154
300.141
300.132
300.126
300.121
300.118
300.115
300.113
300.112
300.11
300.11
300.109
300.109
300.108
300.111
300.144
300.332
300.462
300.454
300.448
300.443
300.437
300.431
300.425
300.419
300.413
300.406
300.4
300.393
300.385
300.378
300.37
300.361
300.352
300.342
300.328
300.31
300.289
300.268
300.247
300.23
300.215
300.206
300.223
300.517
301.187
301.344
300.457
300.447
300.44
300.434
300.428
300.422
300.416
300.41
300.404
300.398
300.391
300.384
300.377
300.37
300.362
300.353
300.344
300.334
300.321
300.305
300.286
300.266
300.247
300.23
300.216
300.205
300.213
300.35
300.827
301.054
300.454
300.443
300.435
300.428
300.422
300.416
300.409
300.403
300.397
300.391
300.384
300.377
300.37
300.362
300.354
300.346
300.337
300.327
300.315
300.3
300.283
300.264
300.246
300.23
300.216
300.206
300.206
300.276
300.518
300.757
300.455
300.442
300.432
300.424
300.417
300.41
300.404
300.398
300.391
300.384
300.377
300.37
300.363
300.355
300.347
300.339
300.33
300.32
300.309
300.295
300.279
300.262
300.246
300.23
300.217
300.206
300.203
300.239
300.36
300.494
300.458
300.444
300.432
300.422
300.414
300.406
300.4
300.393
300.386
300.379
300.372
300.365
300.357
300.349
300.341
300.332
300.324
300.314
300.303
300.29
300.276
300.26
300.245
300.231
300.218
300.207
300.202
300.219
300.282
300.349
300.464
300.448
300.434
300.423
300.413
300.404
300.396
300.389
300.382
300.374
300.367
300.359
300.352
300.344
300.335
300.327
300.318
300.308
300.298
300.286
300.273
300.258
300.244
300.231
300.218
300.208
300.202
300.209
300.243
300.287
300.474
300.455
300.438
300.425
300.414
300.403
300.394
300.386
300.378
300.37
300.363
300.355
300.347
300.338
300.33
300.321
300.312
300.303
300.293
300.282
300.27
300.256
300.243
300.231
300.219
300.209
300.202
300.205
300.222
300.258
300.487
300.464
300.445
300.429
300.416
300.404
300.393
300.384
300.375
300.367
300.359
300.351
300.343
300.334
300.325
300.316
300.307
300.298
300.288
300.278
300.267
300.255
300.242
300.231
300.22
300.21
300.203
300.202
300.212
300.243
300.504
300.477
300.454
300.435
300.419
300.406
300.394
300.383
300.374
300.365
300.356
300.347
300.339
300.33
300.321
300.312
300.303
300.293
300.284
300.274
300.264
300.253
300.241
300.23
300.22
300.211
300.204
300.202
300.208
300.234
300.523
300.492
300.465
300.442
300.424
300.408
300.395
300.383
300.373
300.363
300.354
300.345
300.335
300.326
300.317
300.308
300.298
300.289
300.28
300.271
300.261
300.251
300.24
300.23
300.221
300.212
300.205
300.202
300.205
300.229
300.546
300.51
300.478
300.451
300.43
300.412
300.397
300.384
300.373
300.362
300.352
300.342
300.333
300.323
300.314
300.304
300.295
300.285
300.277
300.268
300.259
300.249
300.24
300.23
300.221
300.213
300.207
300.203
300.205
300.227
300.575
300.532
300.494
300.463
300.438
300.418
300.401
300.386
300.374
300.362
300.351
300.341
300.331
300.321
300.311
300.301
300.291
300.282
300.273
300.265
300.256
300.248
300.239
300.23
300.222
300.214
300.208
300.204
300.205
300.227
300.61
300.562
300.516
300.478
300.448
300.424
300.405
300.389
300.375
300.363
300.351
300.34
300.329
300.319
300.308
300.298
300.288
300.279
300.271
300.262
300.254
300.246
300.238
300.23
300.222
300.215
300.209
300.205
300.206
300.228
300.652
300.602
300.547
300.499
300.462
300.434
300.412
300.393
300.378
300.364
300.351
300.339
300.328
300.317
300.306
300.296
300.286
300.277
300.268
300.26
300.252
300.245
300.237
300.229
300.222
300.216
300.21
300.206
300.207
300.229
300.694
300.652
300.59
300.531
300.483
300.448
300.421
300.399
300.382
300.366
300.353
300.34
300.328
300.316
300.305
300.294
300.284
300.275
300.266
300.258
300.251
300.244
300.236
300.229
300.222
300.216
300.211
300.207
300.209
300.232
300.733
300.705
300.645
300.576
300.515
300.468
300.434
300.408
300.387
300.37
300.355
300.341
300.328
300.316
300.304
300.293
300.283
300.273
300.265
300.257
300.25
300.243
300.236
300.229
300.222
300.216
300.211
300.208
300.21
300.235
300.767
300.753
300.706
300.634
300.56
300.499
300.454
300.421
300.396
300.376
300.359
300.343
300.33
300.317
300.304
300.293
300.282
300.272
300.264
300.256
300.249
300.242
300.235
300.229
300.222
300.217
300.212
300.209
300.212
300.239
300.794
300.792
300.763
300.7
300.619
300.543
300.483
300.44
300.408
300.384
300.364
300.347
300.332
300.318
300.305
300.293
300.282
300.272
300.263
300.255
300.248
300.241
300.235
300.228
300.222
300.217
300.213
300.21
300.213
300.244
300.818
300.822
300.807
300.762
300.686
300.6
300.525
300.468
300.426
300.396
300.372
300.352
300.335
300.32
300.306
300.294
300.282
300.272
300.263
300.255
300.248
300.241
300.234
300.228
300.223
300.218
300.214
300.211
300.215
300.249
300.841
300.848
300.841
300.812
300.75
300.665
300.578
300.505
300.451
300.412
300.383
300.36
300.34
300.324
300.309
300.295
300.283
300.272
300.263
300.255
300.247
300.24
300.234
300.228
300.223
300.218
300.214
300.212
300.217
300.255
300.865
300.871
300.868
300.849
300.805
300.73
300.639
300.554
300.485
300.435
300.398
300.37
300.348
300.329
300.312
300.298
300.285
300.274
300.264
300.255
300.247
300.24
300.234
300.228
300.223
300.218
300.215
300.213
300.219
300.262
300.89
300.894
300.891
300.879
300.847
300.786
300.701
300.609
300.528
300.465
300.419
300.384
300.357
300.335
300.317
300.301
300.287
300.275
300.265
300.256
300.248
300.241
300.234
300.228
300.223
300.219
300.215
300.214
300.221
300.269
300.917
300.917
300.914
300.903
300.879
300.832
300.758
300.666
300.577
300.502
300.444
300.402
300.369
300.344
300.323
300.306
300.291
300.278
300.267
300.257
300.249
300.241
300.235
300.229
300.223
300.219
300.216
300.215
300.224
300.279
300.945
300.941
300.935
300.924
300.904
300.867
300.804
300.719
300.626
300.542
300.474
300.423
300.384
300.354
300.33
300.311
300.295
300.281
300.269
300.259
300.25
300.242
300.235
300.229
300.224
300.22
300.216
300.216
300.227
300.29
300.971
300.964
300.954
300.941
300.922
300.89
300.838
300.761
300.671
300.582
300.505
300.445
300.399
300.364
300.337
300.316
300.298
300.284
300.271
300.26
300.251
300.243
300.236
300.229
300.224
300.22
300.217
300.217
300.231
300.305
300.993
300.98
300.966
300.95
300.929
300.9
300.854
300.786
300.701
300.611
300.529
300.462
300.41
300.371
300.34
300.317
300.298
300.282
300.27
300.259
300.25
300.242
300.235
300.228
300.223
300.219
300.216
300.218
300.236
300.328
300.998
300.979
300.959
300.938
300.916
300.887
300.847
300.787
300.707
300.617
300.532
300.46
300.404
300.361
300.329
300.305
300.286
300.271
300.259
300.249
300.241
300.234
300.228
300.222
300.218
300.214
300.212
300.217
300.244
300.37
300.954
300.929
300.905
300.882
300.859
300.83
300.79
300.734
300.658
300.571
300.488
300.418
300.364
300.323
300.293
300.27
300.254
300.241
300.231
300.224
300.217
300.212
300.208
300.204
300.201
300.199
300.199
300.209
300.254
300.437
300.792
300.766
300.748
300.731
300.711
300.684
300.647
300.596
300.53
300.456
300.385
300.327
300.282
300.249
300.225
300.207
300.195
300.185
300.178
300.173
300.169
300.167
300.165
300.163
300.163
300.163
300.165
300.178
300.243
300.482
300.444
300.435
300.432
300.428
300.42
300.406
300.385
300.355
300.315
300.27
300.228
300.194
300.168
300.149
300.135
300.124
300.117
300.111
300.106
300.102
300.099
300.097
300.096
300.095
300.094
300.093
300.094
300.102
300.146
300.299
300.463
300.456
300.45
300.443
300.437
300.431
300.425
300.418
300.411
300.404
300.396
300.388
300.38
300.372
300.363
300.354
300.343
300.33
300.31
300.285
300.258
300.232
300.21
300.191
300.177
300.167
300.191
300.562
301.151
301.238
300.455
300.446
300.438
300.432
300.426
300.419
300.413
300.406
300.399
300.392
300.385
300.377
300.369
300.361
300.352
300.343
300.333
300.32
300.302
300.28
300.255
300.232
300.211
300.193
300.179
300.168
300.177
300.372
300.832
300.968
300.449
300.439
300.431
300.424
300.417
300.411
300.404
300.397
300.39
300.383
300.375
300.368
300.359
300.351
300.342
300.333
300.323
300.311
300.295
300.275
300.253
300.231
300.212
300.195
300.18
300.169
300.172
300.28
300.555
300.721
300.446
300.435
300.426
300.419
300.412
300.405
300.398
300.39
300.383
300.376
300.368
300.36
300.351
300.343
300.334
300.325
300.315
300.303
300.288
300.27
300.25
300.23
300.212
300.196
300.182
300.171
300.17
300.23
300.39
300.495
300.445
300.434
300.425
300.416
300.408
300.4
300.392
300.385
300.377
300.369
300.361
300.353
300.344
300.335
300.326
300.317
300.307
300.296
300.282
300.266
300.248
300.229
300.212
300.197
300.184
300.173
300.169
300.203
300.296
300.366
300.446
300.436
300.425
300.416
300.406
300.397
300.389
300.381
300.372
300.364
300.355
300.347
300.338
300.329
300.319
300.31
300.3
300.289
300.276
300.261
300.245
300.228
300.213
300.198
300.185
300.175
300.17
300.188
300.244
300.295
300.449
300.439
300.428
300.418
300.407
300.397
300.387
300.378
300.369
300.36
300.351
300.341
300.332
300.323
300.313
300.303
300.293
300.283
300.271
300.257
300.242
300.227
300.213
300.199
300.187
300.177
300.171
300.18
300.214
300.253
300.455
300.445
300.433
300.421
300.41
300.398
300.387
300.376
300.366
300.356
300.347
300.337
300.327
300.317
300.307
300.297
300.287
300.277
300.266
300.254
300.24
300.226
300.213
300.2
300.189
300.179
300.172
300.176
300.196
300.229
300.465
300.454
300.441
300.427
300.414
300.401
300.389
300.377
300.365
300.354
300.344
300.333
300.323
300.313
300.302
300.292
300.282
300.272
300.261
300.25
300.238
300.225
300.212
300.201
300.19
300.181
300.174
300.174
300.187
300.215
300.48
300.468
300.452
300.436
300.42
300.405
300.391
300.378
300.366
300.353
300.342
300.331
300.32
300.309
300.298
300.287
300.277
300.267
300.257
300.246
300.235
300.224
300.212
300.201
300.191
300.183
300.176
300.175
300.182
300.206
300.499
300.485
300.466
300.447
300.428
300.411
300.395
300.381
300.367
300.354
300.341
300.329
300.317
300.305
300.294
300.283
300.272
300.263
300.253
300.243
300.233
300.223
300.212
300.202
300.193
300.184
300.178
300.175
300.181
300.201
300.522
300.506
300.484
300.461
300.439
300.419
300.401
300.385
300.37
300.355
300.342
300.328
300.315
300.303
300.291
300.279
300.269
300.259
300.25
300.24
300.231
300.221
300.212
300.203
300.194
300.186
300.179
300.177
300.18
300.2
300.548
300.532
300.506
300.479
300.453
300.429
300.408
300.39
300.373
300.358
300.343
300.329
300.314
300.301
300.288
300.276
300.265
300.256
300.247
300.238
300.229
300.22
300.211
300.203
300.195
300.187
300.181
300.178
300.181
300.2
300.578
300.563
300.534
300.502
300.47
300.443
300.418
300.397
300.379
300.361
300.345
300.33
300.315
300.3
300.287
300.274
300.263
300.253
300.244
300.236
300.228
300.219
300.211
300.203
300.196
300.188
300.183
300.18
300.183
300.201
300.61
300.598
300.569
300.531
300.494
300.46
300.432
300.407
300.386
300.366
300.349
300.332
300.316
300.3
300.286
300.273
300.261
300.251
300.242
300.234
300.226
300.219
300.211
300.203
300.196
300.19
300.184
300.182
300.184
300.203
300.642
300.636
300.61
300.569
300.525
300.484
300.45
300.42
300.395
300.374
300.354
300.335
300.318
300.301
300.286
300.272
300.26
300.25
300.241
300.233
300.225
300.218
300.211
300.204
300.197
300.191
300.186
300.183
300.186
300.206
300.672
300.673
300.654
300.614
300.564
300.516
300.474
300.438
300.408
300.383
300.361
300.34
300.321
300.304
300.287
300.273
300.26
300.249
300.24
300.232
300.225
300.217
300.21
300.204
300.197
300.192
300.187
300.185
300.188
300.209
300.7
300.707
300.696
300.662
300.612
300.556
300.505
300.462
300.426
300.396
300.37
300.347
300.326
300.307
300.289
300.274
300.261
300.249
300.24
300.232
300.224
300.217
300.21
300.204
300.198
300.192
300.188
300.187
300.191
300.213
300.727
300.737
300.732
300.708
300.662
300.604
300.545
300.492
300.448
300.412
300.382
300.356
300.332
300.311
300.293
300.276
300.262
300.25
300.24
300.232
300.224
300.217
300.21
300.204
300.198
300.193
300.19
300.189
300.193
300.218
300.753
300.764
300.763
300.747
300.71
300.655
300.591
300.53
300.477
300.433
300.397
300.367
300.34
300.317
300.297
300.279
300.264
300.252
300.241
300.232
300.224
300.217
300.211
300.204
300.199
300.194
300.191
300.19
300.196
300.224
300.78
300.789
300.79
300.779
300.751
300.703
300.64
300.573
300.511
300.459
300.416
300.38
300.35
300.324
300.302
300.283
300.268
300.254
300.243
300.233
300.225
300.218
300.211
300.205
300.2
300.195
300.192
300.192
300.199
300.23
300.809
300.815
300.815
300.807
300.786
300.746
300.687
300.619
300.55
300.489
300.439
300.397
300.362
300.333
300.309
300.288
300.271
300.257
300.245
300.235
300.226
300.219
300.212
300.206
300.201
300.197
300.194
300.194
300.202
300.237
300.839
300.841
300.839
300.831
300.813
300.78
300.729
300.663
300.591
300.523
300.464
300.416
300.376
300.343
300.316
300.294
300.276
300.26
300.248
300.237
300.228
300.22
300.213
300.207
300.202
300.198
300.195
300.196
300.206
300.246
300.867
300.865
300.86
300.851
300.835
300.807
300.762
300.7
300.628
300.556
300.491
300.435
300.39
300.353
300.323
300.299
300.279
300.263
300.25
300.239
300.229
300.221
300.214
300.208
300.203
300.199
300.197
300.198
300.21
300.257
300.892
300.886
300.877
300.865
300.848
300.822
300.782
300.726
300.657
300.583
300.513
300.452
300.401
300.36
300.327
300.301
300.28
300.263
300.249
300.238
300.228
300.22
300.214
300.208
300.203
300.199
300.198
300.2
300.216
300.272
300.907
300.895
300.881
300.866
300.848
300.824
300.787
300.736
300.669
300.595
300.522
300.457
300.402
300.357
300.322
300.294
300.272
300.255
300.241
300.231
300.222
300.215
300.209
300.204
300.2
300.197
300.197
300.202
300.224
300.296
300.895
300.876
300.858
300.84
300.821
300.796
300.762
300.713
300.649
300.576
300.503
300.436
300.38
300.335
300.299
300.271
300.25
300.235
300.223
300.213
300.206
300.201
300.197
300.193
300.19
300.189
300.19
300.202
300.236
300.339
300.826
300.803
300.784
300.767
300.749
300.725
300.692
300.646
300.586
300.516
300.446
300.383
300.331
300.29
300.257
300.231
300.212
300.199
300.189
300.182
300.177
300.174
300.171
300.17
300.17
300.17
300.174
300.192
300.247
300.397
300.666
300.648
300.634
300.623
300.609
300.59
300.561
300.521
300.469
300.41
300.351
300.299
300.257
300.224
300.198
300.178
300.164
300.153
300.145
300.14
300.137
300.134
300.133
300.133
300.133
300.135
300.139
300.161
300.233
300.419
300.408
300.403
300.403
300.403
300.399
300.39
300.373
300.347
300.313
300.273
300.234
300.2
300.172
300.15
300.133
300.119
300.109
300.102
300.096
300.092
300.089
300.087
300.086
300.086
300.085
300.086
300.088
300.102
300.153
300.282
300.467
300.459
300.452
300.446
300.439
300.432
300.425
300.418
300.41
300.402
300.394
300.386
300.377
300.368
300.359
300.349
300.336
300.318
300.291
300.259
300.227
300.201
300.181
300.166
300.154
300.145
300.164
300.608
301.096
301.145
300.456
300.446
300.439
300.432
300.425
300.418
300.411
300.404
300.397
300.389
300.381
300.372
300.364
300.355
300.346
300.336
300.324
300.307
300.283
300.254
300.226
300.202
300.182
300.167
300.155
300.146
300.155
300.407
300.85
300.904
300.448
300.438
300.43
300.422
300.415
300.408
300.401
300.394
300.386
300.378
300.37
300.362
300.353
300.344
300.335
300.325
300.313
300.298
300.276
300.25
300.225
300.202
300.184
300.168
300.156
300.147
300.152
300.303
300.605
300.699
300.442
300.432
300.423
300.415
300.408
300.401
300.393
300.386
300.378
300.37
300.361
300.353
300.344
300.335
300.325
300.315
300.304
300.289
300.27
300.247
300.223
300.202
300.184
300.17
300.158
300.149
300.15
300.243
300.441
300.524
300.439
300.428
300.419
300.411
300.403
300.395
300.387
300.379
300.371
300.363
300.354
300.345
300.336
300.326
300.316
300.306
300.295
300.281
300.263
300.243
300.222
300.202
300.185
300.171
300.159
300.15
300.15
300.207
300.337
300.405
300.437
300.427
300.417
300.408
300.4
300.391
300.383
300.374
300.366
300.357
300.347
300.338
300.328
300.318
300.309
300.298
300.287
300.274
300.258
300.239
300.22
300.202
300.186
300.172
300.161
300.152
300.15
300.186
300.271
300.327
300.437
300.428
300.419
300.409
300.4
300.39
300.38
300.371
300.361
300.352
300.342
300.332
300.322
300.312
300.301
300.291
300.28
300.267
300.252
300.235
300.218
300.202
300.187
300.174
300.162
300.154
300.151
300.172
300.229
300.275
300.439
300.431
300.421
300.411
300.401
300.391
300.38
300.369
300.358
300.348
300.338
300.327
300.316
300.305
300.295
300.284
300.273
300.261
300.247
300.232
300.216
300.201
300.188
300.175
300.164
300.155
300.152
300.164
300.202
300.241
300.443
300.436
300.426
300.416
300.404
300.393
300.381
300.37
300.358
300.346
300.335
300.323
300.312
300.3
300.289
300.278
300.267
300.255
300.242
300.229
300.215
300.201
300.188
300.176
300.166
300.157
300.152
300.159
300.185
300.217
300.451
300.444
300.434
300.422
300.41
300.397
300.384
300.371
300.358
300.346
300.333
300.32
300.308
300.296
300.284
300.272
300.261
300.25
300.238
300.226
300.213
300.201
300.189
300.178
300.168
300.159
300.154
300.157
300.174
300.201
300.463
300.456
300.445
300.432
300.418
300.403
300.388
300.374
300.36
300.347
300.333
300.318
300.305
300.292
300.279
300.267
300.256
300.245
300.234
300.223
300.212
300.2
300.189
300.179
300.169
300.161
300.155
300.157
300.168
300.191
300.479
300.473
300.461
300.445
300.428
300.411
300.395
300.379
300.364
300.349
300.334
300.318
300.303
300.289
300.276
300.263
300.252
300.241
300.231
300.221
300.21
300.2
300.19
300.18
300.171
300.163
300.157
300.157
300.165
300.185
300.499
300.493
300.48
300.462
300.442
300.423
300.404
300.386
300.369
300.352
300.336
300.319
300.303
300.287
300.273
300.26
300.248
300.238
300.228
300.218
300.209
300.199
300.19
300.181
300.172
300.164
300.159
300.158
300.164
300.182
300.522
300.518
300.503
300.483
300.46
300.437
300.415
300.395
300.375
300.357
300.339
300.321
300.304
300.287
300.271
300.258
300.246
300.235
300.226
300.217
300.208
300.199
300.19
300.182
300.173
300.166
300.161
300.16
300.165
300.182
300.549
300.546
300.532
300.509
300.483
300.456
300.43
300.406
300.384
300.364
300.344
300.325
300.306
300.287
300.271
300.256
300.244
300.233
300.224
300.216
300.207
300.199
300.19
300.182
300.174
300.168
300.163
300.161
300.166
300.183
300.577
300.577
300.565
300.541
300.511
300.48
300.45
300.422
300.396
300.373
300.351
300.329
300.309
300.289
300.271
300.256
300.243
300.232
300.223
300.215
300.207
300.199
300.19
300.183
300.175
300.169
300.165
300.164
300.168
300.185
300.606
300.61
300.6
300.577
300.545
300.509
300.474
300.441
300.411
300.384
300.359
300.336
300.313
300.292
300.273
300.257
300.243
300.232
300.223
300.214
300.206
300.198
300.191
300.183
300.177
300.171
300.166
300.166
300.17
300.188
300.635
300.642
300.636
300.616
300.583
300.544
300.503
300.465
300.43
300.399
300.37
300.344
300.319
300.296
300.276
300.258
300.244
300.233
300.223
300.214
300.206
300.198
300.191
300.184
300.178
300.172
300.168
300.168
300.173
300.192
300.664
300.673
300.67
300.654
300.624
300.583
300.538
300.494
300.453
300.416
300.384
300.354
300.326
300.301
300.28
300.261
300.246
300.234
300.223
300.214
300.206
300.199
300.192
300.185
300.179
300.174
300.17
300.17
300.176
300.196
300.693
300.702
300.701
300.69
300.664
300.624
300.576
300.527
300.48
300.437
300.4
300.366
300.335
300.308
300.285
300.265
300.249
300.236
300.225
300.215
300.207
300.199
300.192
300.186
300.18
300.176
300.173
300.173
300.179
300.201
300.723
300.73
300.73
300.722
300.7
300.664
300.617
300.563
300.51
300.462
300.418
300.379
300.345
300.316
300.291
300.27
300.253
300.239
300.227
300.217
300.208
300.201
300.194
300.187
300.182
300.178
300.175
300.176
300.183
300.208
300.754
300.758
300.757
300.75
300.732
300.7
300.655
300.601
300.543
300.488
300.439
300.395
300.357
300.325
300.298
300.275
300.257
300.242
300.229
300.219
300.21
300.202
300.195
300.189
300.184
300.179
300.177
300.179
300.187
300.215
300.784
300.784
300.782
300.774
300.758
300.731
300.689
300.636
300.576
300.516
300.461
300.412
300.37
300.334
300.305
300.28
300.26
300.244
300.231
300.22
300.21
300.203
300.196
300.19
300.185
300.181
300.179
300.182
300.192
300.224
300.811
300.808
300.803
300.794
300.778
300.753
300.715
300.665
300.605
300.541
300.481
300.427
300.381
300.342
300.309
300.283
300.261
300.243
300.23
300.219
300.21
300.202
300.196
300.19
300.186
300.183
300.182
300.185
300.198
300.236
300.831
300.825
300.816
300.804
300.788
300.764
300.729
300.681
300.622
300.558
300.494
300.436
300.386
300.343
300.309
300.279
300.256
300.238
300.224
300.213
300.205
300.199
300.193
300.188
300.185
300.182
300.183
300.188
300.206
300.253
300.837
300.826
300.813
300.799
300.781
300.759
300.727
300.682
300.626
300.561
300.495
300.433
300.379
300.334
300.297
300.266
300.242
300.224
300.211
300.201
300.194
300.189
300.185
300.182
300.18
300.179
300.181
300.191
300.217
300.281
300.812
300.795
300.78
300.764
300.747
300.725
300.695
300.652
300.597
300.533
300.468
300.406
300.353
300.308
300.271
300.239
300.216
300.199
300.188
300.18
300.174
300.171
300.169
300.168
300.168
300.169
300.174
300.192
300.232
300.326
300.733
300.716
300.701
300.687
300.673
300.654
300.626
300.586
300.534
300.474
300.413
300.356
300.306
300.265
300.231
300.202
300.182
300.167
300.157
300.151
300.147
300.145
300.145
300.145
300.146
300.148
300.157
300.182
300.243
300.374
300.585
300.575
300.567
300.56
300.551
300.536
300.513
300.48
300.436
300.385
300.332
300.285
300.244
300.21
300.182
300.158
300.142
300.13
300.122
300.117
300.114
300.113
300.113
300.114
300.115
300.118
300.126
300.153
300.226
300.379
300.38
300.381
300.384
300.386
300.386
300.38
300.367
300.344
300.313
300.276
300.239
300.205
300.176
300.151
300.13
300.112
300.1
300.091
300.085
300.081
300.079
300.078
300.078
300.078
300.079
300.08
300.085
300.105
300.159
300.271
300.472
300.463
300.455
300.448
300.441
300.434
300.426
300.418
300.41
300.402
300.393
300.384
300.375
300.366
300.356
300.345
300.33
300.305
300.269
300.231
300.2
300.177
300.16
300.148
300.139
300.133
300.146
300.635
301.039
301.069
300.458
300.448
300.44
300.432
300.425
300.418
300.411
300.403
300.395
300.387
300.378
300.37
300.361
300.351
300.342
300.331
300.316
300.294
300.262
300.228
300.2
300.178
300.161
300.149
300.139
300.133
300.141
300.436
300.862
300.857
300.448
300.438
300.429
300.422
300.414
300.407
300.4
300.392
300.384
300.375
300.367
300.358
300.349
300.339
300.33
300.319
300.305
300.284
300.255
300.225
300.199
300.178
300.162
300.149
300.14
300.133
300.14
300.328
300.658
300.698
300.441
300.43