/*--------------------------------*- C++ -*----------------------------------*\
| =========                 |                                                 |
| \\      /  F ield         | OpenFOAM: The Open Source CFD Toolbox           |
|  \\    /   O peration     | Version:  5.0                                   |
|   \\  /    A nd           | Web:      www.OpenFOAM.org                      |
|    \\/     M anipulation  |                                                 |
\*---------------------------------------------------------------------------*/
FoamFile
{
    version     2.0;
    format      ascii;
    class       volScalarField;
    location    "750/porous";
    object      T;
}
// * * * * * * * * * * * * * * * * * * * * * * * * * * * * * * * * * * * * * //

dimensions      [0 0 0 1 0 0 0];

internalField   nonuniform List<scalar> 
36000
(
400
400
400
400
399.999
399.578
399.198
398.848
398.515
398.195
397.883
397.578
397.278
396.982
396.689
396.4
396.114
395.831
395.551
395.275
395.002
394.731
394.457
394.181
393.904
393.627
393.351
393.078
392.808
392.541
392.279
392.021
391.768
391.521
391.289
391.817
392.173
392.444
392.664
392.85
400
400
400
400
399.999
399.627
399.294
398.987
398.699
398.424
398.159
397.902
397.651
397.405
397.163
396.926
396.693
396.464
396.238
396.017
395.799
395.582
395.364
395.144
394.923
394.702
394.484
394.268
394.054
393.844
393.638
393.435
393.237
393.045
392.86
393.207
393.45
393.637
393.786
393.918
400
400
400
400
399.999
399.634
399.308
399.011
398.734
398.471
398.22
397.977
397.742
397.514
397.291
397.074
396.861
396.654
396.45
396.252
396.058
395.866
395.672
395.476
395.28
395.085
394.893
394.703
394.516
394.332
394.153
393.978
393.807
393.642
393.487
393.805
394.033
394.209
394.349
394.471
400
400
400
400
399.999
399.633
399.308
399.011
398.735
398.475
398.226
397.987
397.756
397.531
397.314
397.102
396.896
396.695
396.499
396.308
396.122
395.938
395.751
395.563
395.375
395.189
395.004
394.823
394.645
394.471
394.3
394.135
393.974
393.82
393.673
393.987
394.212
394.387
394.528
394.648
400
400
400
400
399.999
399.632
399.307
399.011
398.735
398.475
398.227
397.989
397.759
397.536
397.32
397.111
396.906
396.708
396.514
396.326
396.142
395.959
395.775
395.589
395.403
395.22
395.038
394.859
394.684
394.512
394.345
394.183
394.025
393.875
393.732
394.043
394.269
394.443
394.585
394.705
400
400
400
400
399.999
399.632
399.306
399.009
398.733
398.473
398.225
397.986
397.757
397.535
397.32
397.111
396.908
396.71
396.517
396.329
396.145
395.962
395.778
395.592
395.408
395.225
395.045
394.867
394.692
394.521
394.354
394.193
394.037
393.887
393.746
394.056
394.281
394.456
394.598
394.718
400
400
400
400
399.999
399.631
399.305
399.009
398.733
398.473
398.225
397.987
397.759
397.538
397.324
397.116
396.913
396.716
396.523
396.334
396.148
395.965
395.781
395.596
395.412
395.23
395.05
394.872
394.698
394.527
394.361
394.199
394.043
393.894
393.752
394.063
394.288
394.462
394.604
394.724
400
400
400
400
399.999
399.631
399.305
399.009
398.733
398.473
398.225
397.988
397.76
397.54
397.327
397.12
396.918
396.72
396.526
396.334
396.146
395.962
395.779
395.595
395.411
395.23
395.05
394.873
394.698
394.528
394.361
394.2
394.043
393.894
393.752
394.063
394.288
394.462
394.604
394.724
400
400
400
400
399.999
399.631
399.306
399.01
398.734
398.475
398.228
397.991
397.764
397.545
397.334
397.128
396.926
396.728
396.531
396.336
396.146
395.96
395.777
395.594
395.412
395.231
395.052
394.876
394.701
394.531
394.364
394.202
394.046
393.896
393.754
394.065
394.289
394.463
394.605
394.725
400
400
400
400
399.999
399.631
399.306
399.011
398.736
398.476
398.23
397.994
397.768
397.551
397.34
397.135
396.934
396.733
396.532
396.335
396.142
395.953
395.77
395.59
395.409
395.229
395.051
394.875
394.701
394.53
394.364
394.202
394.045
393.895
393.752
394.063
394.288
394.461
394.603
394.723
400
400
400
400
399.999
399.633
399.308
399.013
398.739
398.48
398.233
397.998
397.773
397.557
397.348
397.144
396.942
396.738
396.534
396.334
396.139
395.948
395.764
395.585
395.407
395.229
395.051
394.876
394.702
394.532
394.365
394.203
394.046
393.895
393.751
394.062
394.286
394.46
394.602
394.722
400
400
400
400
399.999
399.633
399.309
399.015
398.741
398.482
398.235
398.001
397.776
397.561
397.354
397.15
396.945
396.738
396.532
396.332
396.137
395.944
395.758
395.579
395.403
395.227
395.051
394.876
394.702
394.532
394.365
394.202
394.045
393.894
393.749
394.06
394.284
394.458
394.6
394.72
400
400
400
400
399.999
399.635
399.312
399.017
398.743
398.484
398.238
398.003
397.779
397.564
397.357
397.153
396.946
396.738
396.532
396.332
396.137
395.944
395.756
395.578
395.403
395.229
395.054
394.879
394.706
394.536
394.368
394.206
394.048
393.895
393.748
394.059
394.284
394.458
394.6
394.72
400
400
400
400
399.999
399.636
399.313
399.019
398.745
398.486
398.24
398.004
397.779
397.564
397.357
397.152
396.945
396.736
396.531
396.332
396.136
395.944
395.756
395.577
395.403
395.231
395.057
394.883
394.71
394.54
394.372
394.209
394.05
393.896
393.747
394.059
394.284
394.458
394.6
394.72
400
400
400
400
399.999
399.637
399.315
399.021
398.747
398.488
398.241
398.005
397.779
397.563
397.354
397.149
396.942
396.733
396.529
396.33
396.135
395.943
395.755
395.576
395.404
395.233
395.06
394.887
394.714
394.544
394.376
394.212
394.053
393.898
393.748
394.06
394.285
394.459
394.601
394.721
400
400
400
400
399.999
399.639
399.318
399.025
398.75
398.491
398.243
398.006
397.779
397.561
397.351
397.145
396.938
396.731
396.527
396.328
396.133
395.941
395.753
395.574
395.403
395.234
395.063
394.891
394.718
394.547
394.379
394.215
394.054
393.897
393.744
394.057
394.283
394.458
394.6
394.72
400
400
400
400
399.999
399.64
399.32
399.026
398.752
398.492
398.243
398.006
397.778
397.558
397.347
397.141
396.935
396.727
396.523
396.324
396.129
395.937
395.75
395.572
395.402
395.234
395.064
394.892
394.719
394.548
394.38
394.215
394.054
393.896
393.742
394.056
394.282
394.456
394.598
394.718
400
400
400
400
399.999
399.641
399.322
399.028
398.753
398.493
398.244
398.006
397.777
397.556
397.343
397.137
396.931
396.724
396.52
396.322
396.126
395.934
395.747
395.571
395.401
395.234
395.064
394.892
394.72
394.549
394.381
394.215
394.053
393.895
393.74
394.053
394.28
394.454
394.597
394.717
400
400
400
400
399.999
399.643
399.324
399.03
398.755
398.494
398.245
398.006
397.776
397.554
397.34
397.132
396.928
396.723
396.519
396.32
396.125
395.933
395.748
395.572
395.403
395.234
395.064
394.892
394.72
394.549
394.38
394.214
394.052
393.891
393.735
394.05
394.277
394.452
394.594
394.715
400
400
400
400
399.999
399.644
399.325
399.031
398.757
398.496
398.246
398.006
397.775
397.553
397.337
397.129
396.925
396.723
396.521
396.323
396.129
395.938
395.755
395.58
395.408
395.238
395.066
394.894
394.721
394.55
394.38
394.214
394.051
393.891
393.734
394.049
394.276
394.452
394.595
394.715
400
400
400
400
399.999
399.645
399.326
399.033
398.758
398.497
398.247
398.006
397.775
397.551
397.335
397.125
396.922
396.722
396.524
396.327
396.135
395.947
395.765
395.588
395.414
395.24
395.067
394.894
394.72
394.549
394.379
394.213
394.049
393.888
393.73
394.046
394.274
394.45
394.593
394.714
400
400
400
400
399.999
399.645
399.327
399.034
398.759
398.498
398.248
398.007
397.775
397.551
397.333
397.123
396.92
396.722
396.527
396.333
396.143
395.957
395.775
395.597
395.42
395.244
395.069
394.894
394.721
394.548
394.379
394.212
394.048
393.887
393.729
394.045
394.273
394.45
394.593
394.714
400
400
400
400
399.999
399.646
399.328
399.035
398.76
398.498
398.248
398.007
397.774
397.549
397.332
397.121
396.917
396.72
396.527
396.337
396.148
395.963
395.781
395.6
395.421
395.243
395.067
394.892
394.717
394.545
394.375
394.208
394.044
393.883
393.725
394.042
394.27
394.447
394.59
394.712
400
400
400
400
399.999
399.647
399.329
399.036
398.761
398.5
398.25
398.008
397.776
397.55
397.332
397.121
396.917
396.72
396.53
396.341
396.155
395.97
395.786
395.604
395.423
395.244
395.067
394.891
394.716
394.544
394.374
394.207
394.043
393.881
393.724
394.041
394.27
394.446
394.59
394.711
400
400
400
400
399.999
399.647
399.33
399.037
398.762
398.501
398.25
398.008
397.775
397.55
397.331
397.119
396.915
396.719
396.529
396.342
396.156
395.97
395.785
395.602
395.42
395.24
395.062
394.885
394.71
394.537
394.368
394.201
394.036
393.874
393.717
394.034
394.263
394.44
394.584
394.705
400
400
400
400
399.999
399.647
399.331
399.038
398.764
398.503
398.252
398.011
397.777
397.551
397.333
397.121
396.916
396.72
396.53
396.343
396.156
395.969
395.783
395.598
395.415
395.234
395.055
394.877
394.702
394.529
394.358
394.19
394.025
393.863
393.705
394.022
394.251
394.428
394.572
394.693
400
400
400
400
399.999
399.647
399.33
399.037
398.762
398.501
398.25
398.008
397.774
397.546
397.326
397.113
396.907
396.709
396.517
396.328
396.138
395.948
395.759
395.572
395.387
395.203
395.02
394.84
394.662
394.487
394.314
394.143
393.975
393.809
393.648
393.967
394.197
394.374
394.517
394.638
400
400
400
400
399.999
399.647
399.329
399.035
398.759
398.495
398.242
397.997
397.759
397.527
397.302
397.083
396.872
396.668
396.469
396.272
396.074
395.877
395.68
395.485
395.291
395.099
394.908
394.72
394.533
394.349
394.167
393.987
393.809
393.634
393.464
393.788
394.02
394.198
394.34
394.462
400
400
400
400
399.999
399.639
399.313
399.009
398.721
398.445
398.178
397.918
397.664
397.416
397.172
396.934
396.702
396.477
396.256
396.035
395.814
395.592
395.372
395.152
394.933
394.716
394.5
394.285
394.073
393.862
393.653
393.446
393.242
393.04
392.842
393.194
393.44
393.629
393.78
393.912
400
400
400
400
399.999
399.59
399.217
398.868
398.536
398.214
397.9
397.592
397.288
396.989
396.695
396.405
396.121
395.843
395.568
395.293
395.017
394.74
394.464
394.188
393.914
393.641
393.369
393.099
392.83
392.564
392.299
392.037
391.777
391.519
391.271
391.805
392.165
392.437
392.659
392.846
400
400
400
400
399.999
399.776
399.523
399.254
398.976
398.693
398.409
398.124
397.84
397.556
397.274
396.993
396.713
396.435
396.159
395.886
395.615
395.345
395.074
394.802
394.528
394.254
393.981
393.709
393.439
393.172
392.908
392.648
392.391
392.14
391.899
392.147
392.384
392.595
392.782
392.945
400
400
400
400
400
399.807
399.594
399.368
399.136
398.902
398.667
398.432
398.199
397.968
397.739
397.513
397.288
397.066
396.847
396.63
396.415
396.203
395.99
395.776
395.562
395.347
395.134
394.922
394.711
394.503
394.298
394.096
393.897
393.702
393.513
393.627
393.749
393.866
393.973
394.074
400
400
400
400
400
399.812
399.604
399.387
399.165
398.943
398.721
398.501
398.284
398.07
397.859
397.651
397.447
397.246
397.049
396.854
396.664
396.475
396.287
396.097
395.908
395.719
395.532
395.346
395.162
394.981
394.803
394.628
394.456
394.289
394.128
394.23
394.338
394.444
394.542
394.634
400
400
400
400
400
399.811
399.604
399.387
399.166
398.945
398.726
398.509
398.295
398.085
397.879
397.677
397.479
397.284
397.093
396.906
396.723
396.542
396.361
396.18
395.998
395.818
395.639
395.462
395.287
395.114
394.945
394.78
394.618
394.461
394.309
394.41
394.517
394.622
394.72
394.811
400
400
400
400
400
399.811
399.604
399.387
399.166
398.946
398.727
398.511
398.298
398.089
397.885
397.684
397.488
397.295
397.106
396.922
396.741
396.562
396.383
396.204
396.025
395.847
395.671
395.496
395.324
395.155
394.989
394.826
394.668
394.514
394.366
394.466
394.574
394.678
394.776
394.867
400
400
400
400
400
399.81
399.602
399.385
399.164
398.943
398.724
398.508
398.295
398.087
397.883
397.683
397.487
397.295
397.107
396.923
396.742
396.564
396.385
396.207
396.028
395.851
395.676
395.502
395.331
395.162
394.996
394.835
394.677
394.524
394.378
394.478
394.586
394.69
394.789
394.88
400
400
400
400
400
399.81
399.602
399.385
399.164
398.943
398.724
398.508
398.296
398.088
397.885
397.686
397.491
397.299
397.112
396.927
396.746
396.567
396.388
396.21
396.032
395.855
395.68
395.507
395.336
395.167
395.002
394.84
394.683
394.531
394.384
394.484
394.592
394.697
394.795
394.886
400
400
400
400
400
399.81
399.602
399.384
399.163
398.942
398.723
398.507
398.296
398.089
397.886
397.688
397.493
397.302
397.114
396.928
396.745
396.565
396.386
396.208
396.03
395.854
395.679
395.506
395.335
395.167
395.002
394.84
394.683
394.53
394.384
394.484
394.591
394.696
394.794
394.885
400
400
400
400
400
399.81
399.602
399.385
399.164
398.943
398.724
398.509
398.299
398.092
397.891
397.693
397.499
397.308
397.119
396.931
396.746
396.564
396.385
396.208
396.031
395.855
395.681
395.508
395.337
395.169
395.004
394.842
394.685
394.532
394.385
394.485
394.593
394.697
394.795
394.886
400
400
400
400
400
399.81
399.602
399.385
399.165
398.944
398.725
398.511
398.301
398.095
397.895
397.698
397.505
397.312
397.121
396.931
396.744
396.561
396.381
396.204
396.027
395.852
395.679
395.506
395.336
395.168
395.003
394.841
394.683
394.53
394.383
394.483
394.591
394.695
394.793
394.884
400
400
400
400
400
399.811
399.603
399.387
399.166
398.946
398.728
398.514
398.304
398.1
397.901
397.705
397.511
397.317
397.124
396.932
396.744
396.558
396.377
396.2
396.025
395.851
395.678
395.506
395.336
395.168
395.003
394.841
394.684
394.53
394.382
394.482
394.59
394.694
394.792
394.883
400
400
400
400
400
399.811
399.604
399.387
399.167
398.947
398.729
398.515
398.306
398.103
397.904
397.709
397.514
397.318
397.123
396.931
396.742
396.555
396.373
396.196
396.021
395.848
395.676
395.505
395.335
395.168
395.003
394.841
394.683
394.529
394.38
394.48
394.588
394.692
394.79
394.881
400
400
400
400
400
399.812
399.605
399.389
399.169
398.949
398.732
398.517
398.308
398.105
397.907
397.711
397.516
397.319
397.124
396.932
396.743
396.556
396.372
396.195
396.021
395.849
395.678
395.507
395.338
395.17
395.005
394.843
394.685
394.531
394.381
394.481
394.588
394.692
394.79
394.881
400
400
400
400
400
399.812
399.606
399.39
399.171
398.951
398.733
398.519
398.309
398.105
397.907
397.711
397.515
397.318
397.123
396.931
396.742
396.555
396.372
396.194
396.021
395.85
395.679
395.509
395.34
395.173
395.008
394.846
394.687
394.532
394.381
394.481
394.588
394.693
394.791
394.881
400
400
400
400
400
399.813
399.607
399.391
399.172
398.952
398.734
398.519
398.309
398.105
397.906
397.709
397.513
397.316
397.121
396.929
396.74
396.554
396.371
396.193
396.02
395.85
395.681
395.512
395.343
395.176
395.011
394.849
394.69
394.534
394.382
394.482
394.589
394.694
394.792
394.883
400
400
400
400
400
399.814
399.609
399.394
399.174
398.954
398.736
398.521
398.31
398.105
397.904
397.707
397.51
397.314
397.119
396.927
396.738
396.552
396.369
396.191
396.019
395.851
395.682
395.514
395.346
395.179
395.014
394.851
394.692
394.535
394.381
394.481
394.588
394.692
394.79
394.881
400
400
400
400
400
399.814
399.61
399.395
399.175
398.955
398.736
398.521
398.31
398.103
397.902
397.704
397.507
397.311
397.116
396.924
396.735
396.549
396.366
396.188
396.017
395.849
395.682
395.514
395.346
395.179
395.014
394.851
394.691
394.534
394.38
394.479
394.587
394.691
394.789
394.88
400
400
400
400
400
399.815
399.611
399.396
399.177
398.956
398.738
398.522
398.31
398.102
397.9
397.701
397.505
397.309
397.114
396.922
396.733
396.547
396.364
396.187
396.017
395.849
395.682
395.514
395.347
395.18
395.015
394.852
394.691
394.533
394.378
394.478
394.585
394.69
394.788
394.879
400
400
400
400
400
399.816
399.612
399.398
399.178
398.958
398.739
398.522
398.31
398.101
397.898
397.699
397.503
397.307
397.112
396.921
396.732
396.545
396.363
396.188
396.017
395.85
395.682
395.514
395.347
395.18
395.014
394.851
394.69
394.531
394.375
394.475
394.583
394.687
394.786
394.877
400
400
400
400
400
399.816
399.613
399.399
399.179
398.959
398.74
398.523
398.31
398.101
397.897
397.697
397.501
397.307
397.114
396.923
396.735
396.549
396.369
396.194
396.023
395.854
395.685
395.517
395.349
395.182
395.016
394.852
394.691
394.532
394.375
394.475
394.583
394.688
394.786
394.878
400
400
400
400
400
399.817
399.614
399.4
399.181
398.96
398.74
398.523
398.31
398.1
397.895
397.695
397.498
397.306
397.114
396.925
396.738
396.555
396.376
396.201
396.028
395.858
395.688
395.519
395.35
395.182
395.016
394.852
394.69
394.531
394.373
394.473
394.581
394.686
394.785
394.876
400
400
400
400
400
399.817
399.615
399.401
399.182
398.961
398.742
398.525
398.311
398.101
397.895
397.694
397.498
397.306
397.116
396.929
396.744
396.562
396.384
396.208
396.035
395.863
395.692
395.521
395.352
395.184
395.017
394.853
394.691
394.531
394.373
394.473
394.581
394.687
394.785
394.877
400
400
400
400
400
399.818
399.615
399.401
399.182
398.962
398.742
398.525
398.311
398.101
397.894
397.693
397.496
397.304
397.116
396.931
396.747
396.567
396.389
396.212
396.037
395.864
395.691
395.52
395.35
395.182
395.015
394.85
394.688
394.528
394.37
394.47
394.579
394.684
394.783
394.875
400
400
400
400
400
399.818
399.616
399.403
399.184
398.964
398.744
398.527
398.313
398.103
397.896
397.694
397.497
397.306
397.119
396.935
396.753
396.573
396.394
396.217
396.041
395.867
395.694
395.522
395.351
395.182
395.015
394.851
394.688
394.528
394.37
394.471
394.579
394.684
394.783
394.875
400
400
400
400
400
399.818
399.616
399.403
399.184
398.964
398.745
398.527
398.313
398.102
397.896
397.693
397.496
397.305
397.118
396.935
396.753
396.573
396.393
396.215
396.039
395.864
395.69
395.517
395.346
395.177
395.01
394.845
394.682
394.522
394.364
394.464
394.572
394.678
394.777
394.869
400
400
400
400
400
399.819
399.617
399.404
399.186
398.967
398.748
398.53
398.316
398.105
397.898
397.696
397.498
397.307
397.12
396.936
396.754
396.573
396.393
396.214
396.036
395.86
395.685
395.512
395.34
395.17
395.002
394.836
394.673
394.511
394.353
394.453
394.561
394.667
394.765
394.857
400
400
400
400
400
399.818
399.617
399.404
399.185
398.965
398.746
398.528
398.313
398.101
397.893
397.689
397.49
397.297
397.108
396.923
396.738
396.554
396.371
396.19
396.009
395.83
395.653
395.476
395.302
395.129
394.959
394.79
394.624
394.459
394.298
394.398
394.506
394.612
394.71
394.802
400
400
400
400
400
399.819
399.617
399.403
399.183
398.961
398.739
398.518
398.3
398.084
397.871
397.662
397.458
397.259
397.064
396.871
396.679
396.487
396.297
396.107
395.919
395.731
395.545
395.36
395.177
394.996
394.816
394.639
394.463
394.289
394.118
394.22
394.329
394.436
394.534
394.627
400
400
400
400
400
399.814
399.605
399.382
399.152
398.918
398.683
398.447
398.213
397.98
397.749
397.522
397.297
397.077
396.861
396.645
396.43
396.214
396
395.785
395.572
395.359
395.147
394.937
394.727
394.519
394.313
394.108
393.905
393.704
393.506
393.62
393.742
393.861
393.968
394.07
400
400
400
400
399.999
399.782
399.534
399.268
398.991
398.709
398.424
398.137
397.851
397.565
397.281
396.999
396.72
396.445
396.173
395.901
395.628
395.355
395.082
394.81
394.538
394.266
393.996
393.727
393.459
393.192
392.927
392.664
392.403
392.144
391.891
392.139
392.377
392.59
392.777
392.941
400
400
400
400
400
399.86
399.699
399.519
399.324
399.116
398.896
398.668
398.433
398.193
397.948
397.699
397.448
397.196
396.942
396.687
396.433
396.178
395.921
395.663
395.402
395.14
394.878
394.616
394.355
394.094
393.836
393.58
393.326
393.076
392.832
392.905
392.999
393.103
393.209
393.307
400
400
400
400
400
399.879
399.744
399.597
399.438
399.271
399.097
398.916
398.732
398.543
398.352
398.16
397.966
397.771
397.575
397.38
397.186
396.991
396.796
396.599
396.401
396.202
396.004
395.806
395.608
395.411
395.216
395.022
394.831
394.642
394.457
394.457
394.471
394.497
394.528
394.563
400
400
400
400
400
399.882
399.751
399.609
399.459
399.301
399.138
398.97
398.799
398.627
398.453
398.278
398.103
397.928
397.754
397.581
397.409
397.238
397.066
396.893
396.72
396.547
396.375
396.203
396.031
395.862
395.694
395.527
395.364
395.202
395.045
395.047
395.059
395.081
395.107
395.138
400
400
400
400
400
399.881
399.751
399.609
399.46
399.303
399.142
398.977
398.809
398.64
398.47
398.3
398.13
397.961
397.793
397.626
397.461
397.297
397.133
396.968
396.803
396.638
396.473
396.31
396.147
395.986
395.827
395.67
395.516
395.365
395.217
395.221
395.235
395.258
395.285
395.317
400
400
400
400
400
399.881
399.751
399.609
399.46
399.304
399.143
398.978
398.811
398.643
398.474
398.306
398.138
397.97
397.804
397.64
397.477
397.315
397.153
396.99
396.827
396.665
396.503
396.343
396.183
396.025
395.869
395.715
395.563
395.415
395.271
395.276
395.292
395.315
395.343
395.375
400
400
400
400
400
399.881
399.75
399.608
399.458
399.302
399.14
398.975
398.808
398.64
398.472
398.304
398.136
397.969
397.804
397.64
397.477
397.316
397.154
396.992
396.829
396.668
396.507
396.347
396.188
396.03
395.875
395.722
395.572
395.424
395.281
395.287
395.303
395.326
395.354
395.388
400
400
400
400
400
399.881
399.75
399.608
399.458
399.302
399.14
398.976
398.809
398.641
398.473
398.306
398.138
397.972
397.807
397.643
397.48
397.318
397.156
396.994
396.832
396.671
396.51
396.351
396.192
396.035
395.88
395.727
395.577
395.43
395.287
395.293
395.309
395.332
395.36
395.394
400
400
400
400
400
399.881
399.75
399.608
399.458
399.301
399.139
398.975
398.808
398.641
398.473
398.306
398.139
397.973
397.807
397.642
397.479
397.316
397.154
396.992
396.83
396.669
396.509
396.349
396.19
396.033
395.878
395.725
395.575
395.428
395.285
395.291
395.307
395.33
395.359
395.392
400
400
400
400
400
399.881
399.75
399.608
399.458
399.301
399.14
398.976
398.81
398.643
398.476
398.31
398.143
397.977
397.811
397.645
397.48
397.317
397.155
396.993
396.831
396.67
396.51
396.35
396.192
396.035
395.88
395.727
395.577
395.43
395.287
395.293
395.308
395.332
395.36
395.393
400
400
400
400
400
399.881
399.75
399.608
399.458
399.302
399.141
398.977
398.811
398.645
398.478
398.312
398.146
397.98
397.812
397.645
397.479
397.314
397.151
396.99
396.828
396.667
396.507
396.348
396.19
396.033
395.878
395.725
395.575
395.428
395.284
395.29
395.306
395.329
395.358
395.391
400
400
400
400
400
399.881
399.751
399.609
399.46
399.303
399.142
398.979
398.813
398.648
398.482
398.317
398.151
397.984
397.815
397.647
397.48
397.314
397.15
396.988
396.827
396.667
396.507
396.348
396.19
396.033
395.878
395.725
395.575
395.428
395.284
395.289
395.305
395.328
395.357
395.39
400
400
400
400
400
399.882
399.751
399.61
399.46
399.304
399.143
398.98
398.815
398.65
398.485
398.319
398.153
397.984
397.815
397.647
397.479
397.312
397.147
396.985
396.824
396.664
396.505
396.346
396.188
396.032
395.877
395.724
395.573
395.426
395.281
395.287
395.303
395.326
395.355
395.388
400
400
400
400
400
399.882
399.752
399.611
399.461
399.305
399.145
398.981
398.816
398.651
398.487
398.321
398.154
397.985
397.816
397.648
397.48
397.313
397.147
396.985
396.824
396.665
396.506
396.348
396.19
396.034
395.879
395.726
395.575
395.427
395.282
395.288
395.303
395.327
395.355
395.388
400
400
400
400
400
399.882
399.752
399.612
399.462
399.306
399.146
398.982
398.817
398.652
398.487
398.321
398.154
397.985
397.815
397.647
397.479
397.312
397.146
396.984
396.824
396.665
396.506
396.349
396.191
396.035
395.88
395.727
395.577
395.428
395.282
395.288
395.304
395.327
395.355
395.388
400
400
400
400
400
399.883
399.753
399.612
399.463
399.307
399.146
398.983
398.817
398.652
398.486
398.32
398.153
397.983
397.814
397.646
397.478
397.311
397.145
396.983
396.823
396.665
396.507
396.35
396.193
396.037
395.882
395.729
395.579
395.43
395.284
395.289
395.305
395.328
395.356
395.389
400
400
400
400
400
399.883
399.754
399.614
399.465
399.309
399.148
398.984
398.818
398.652
398.486
398.319
398.151
397.982
397.813
397.644
397.477
397.31
397.144
396.981
396.822
396.665
396.508
396.351
396.194
396.039
395.884
395.731
395.58
395.431
395.283
395.289
395.304
395.327
395.356
395.389
400
400
400
400
400
399.884
399.755
399.615
399.465
399.309
399.148
398.984
398.818
398.651
398.484
398.317
398.149
397.98
397.811
397.642
397.474
397.307
397.142
396.979
396.82
396.663
396.507
396.35
396.194
396.038
395.884
395.731
395.58
395.43
395.282
395.288
395.303
395.326
395.354
395.388
400
400
400
400
400
399.884
399.755
399.616
399.466
399.31
399.149
398.985
398.818
398.651
398.483
398.316
398.148
397.979
397.809
397.641
397.473
397.306
397.14
396.978
396.82
396.663
396.507
396.35
396.194
396.039
395.884
395.731
395.58
395.43
395.281
395.287
395.302
395.325
395.354
395.387
400
400
400
400
400
399.885
399.756
399.616
399.467
399.311
399.15
398.985
398.818
398.65
398.482
398.315
398.147
397.978
397.808
397.64
397.472
397.305
397.14
396.978
396.82
396.663
396.507
396.35
396.194
396.039
395.884
395.731
395.579
395.429
395.28
395.285
395.301
395.324
395.352
395.385
400
400
400
400
400
399.885
399.757
399.617
399.468
399.312
399.151
398.986
398.819
398.651
398.482
398.314
398.146
397.978
397.809
397.641
397.474
397.308
397.144
396.983
396.824
396.667
396.51
396.353
396.197
396.041
395.886
395.733
395.581
395.43
395.281
395.286
395.302
395.325
395.353
395.387
400
400
400
400
400
399.885
399.757
399.618
399.469
399.313
399.152
398.987
398.819
398.65
398.481
398.313
398.145
397.977
397.81
397.642
397.476
397.311
397.148
396.987
396.828
396.67
396.513
396.355
396.199
396.042
395.887
395.733
395.581
395.43
395.28
395.286
395.301
395.324
395.353
395.386
400
400
400
400
400
399.885
399.758
399.618
399.47
399.314
399.153
398.988
398.82
398.652
398.482
398.313
398.145
397.978
397.812
397.646
397.48
397.317
397.155
396.994
396.834
396.675
396.517
396.359
396.202
396.045
395.89
395.736
395.583
395.432
395.282
395.287
395.303
395.326
395.354
395.387
400
400
400
400
400
399.886
399.758
399.619
399.47
399.314
399.153
398.988
398.82
398.651
398.482
398.312
398.144
397.977
397.812
397.647
397.482
397.319
397.157
396.996
396.836
396.676
396.518
396.359
396.202
396.045
395.889
395.735
395.582
395.43
395.28
395.285
395.301
395.324
395.352
395.386
400
400
400
400
400
399.886
399.758
399.62
399.471
399.316
399.155
398.99
398.823
398.654
398.484
398.315
398.146
397.979
397.815
397.65
397.487
397.325
397.163
397.001
396.84
396.68
396.521
396.362
396.204
396.047
395.891
395.737
395.584
395.432
395.282
395.287
395.302
395.325
395.354
395.387
400
400
400
400
400
399.886
399.759
399.62
399.472
399.316
399.155
398.99
398.823
398.653
398.484
398.314
398.145
397.979
397.814
397.65
397.487
397.325
397.162
397
396.839
396.678
396.518
396.359
396.201
396.043
395.887
395.732
395.579
395.427
395.276
395.281
395.297
395.32
395.348
395.381
400
400
400
400
400
399.886
399.759
399.621
399.473
399.318
399.158
398.993
398.825
398.656
398.487
398.317
398.148
397.981
397.816
397.653
397.489
397.326
397.163
397
396.838
396.676
396.515
396.355
396.196
396.038
395.881
395.725
395.571
395.418
395.267
395.271
395.286
395.309
395.337
395.369
400
400
400
400
400
399.886
399.759
399.62
399.472
399.317
399.156
398.991
398.822
398.652
398.482
398.311
398.141
397.972
397.806
397.64
397.474
397.309
397.143
396.978
396.813
396.649
396.485
396.323
396.16
395.999
395.84
395.681
395.524
395.368
395.213
395.217
395.231
395.253
395.28
395.312
400
400
400
400
400
399.886
399.759
399.62
399.471
399.314
399.151
398.983
398.812
398.638
398.463
398.288
398.113
397.939
397.767
397.594
397.422
397.249
397.076
396.903
396.731
396.558
396.386
396.215
396.044
395.875
395.706
395.538
395.372
395.207
395.043
395.044
395.056
395.077
395.103
395.134
400
400
400
400
400
399.883
399.751
399.606
399.449
399.282
399.108
398.928
398.742
398.553
398.362
398.168
397.974
397.78
397.587
397.393
397.198
397.002
396.805
396.608
396.41
396.213
396.015
395.818
395.621
395.425
395.229
395.034
394.841
394.648
394.457
394.456
394.47
394.495
394.526
394.561
400
400
400
400
400
399.864
399.706
399.528
399.335
399.127
398.908
398.679
398.443
398.201
397.955
397.706
397.455
397.204
396.953
396.699
396.444
396.188
395.93
395.671
395.411
395.151
394.891
394.631
394.371
394.111
393.852
393.595
393.338
393.083
392.831
392.903
392.997
393.1
393.207
393.305
400
400
400
400
400
399.892
399.774
399.644
399.503
399.351
399.189
399.018
398.838
398.65
398.454
398.253
398.046
397.834
397.618
397.398
397.176
396.951
396.722
396.49
396.254
396.016
395.776
395.534
395.291
395.048
394.806
394.563
394.322
394.083
393.847
393.843
393.853
393.874
393.904
393.93
400
400
400
400
400
399.907
399.806
399.699
399.584
399.463
399.336
399.203
399.065
398.922
398.775
398.624
398.47
398.313
398.153
397.992
397.828
397.664
397.497
397.327
397.156
396.982
396.808
396.633
396.457
396.281
396.105
395.93
395.755
395.582
395.411
395.373
395.342
395.318
395.3
395.284
400
400
400
400
400
399.908
399.811
399.708
399.599
399.485
399.366
399.242
399.115
398.985
398.852
398.716
398.579
398.439
398.299
398.157
398.015
397.872
397.727
397.58
397.432
397.284
397.134
396.984
396.834
396.685
396.536
396.387
396.24
396.094
395.95
395.922
395.897
395.878
395.862
395.851
400
400
400
400
400
399.908
399.811
399.708
399.599
399.486
399.369
399.248
399.123
398.995
398.866
398.734
398.601
398.466
398.331
398.195
398.059
397.922
397.784
397.645
397.504
397.363
397.221
397.079
396.938
396.797
396.656
396.517
396.379
396.242
396.108
396.083
396.063
396.047
396.035
396.027
400
400
400
400
400
399.908
399.811
399.708
399.6
399.487
399.37
399.249
399.125
398.998
398.869
398.739
398.607
398.474
398.34
398.206
398.072
397.937
397.801
397.664
397.526
397.387
397.248
397.109
396.97
396.831
396.694
396.557
396.422
396.289
396.158
396.135
396.117
396.102
396.091
396.085
400
400
400
400
400
399.908
399.81
399.707
399.599
399.485
399.368
399.247
399.123
398.996
398.867
398.737
398.605
398.473
398.34
398.206
398.072
397.937
397.802
397.665
397.527
397.389
397.25
397.112
396.974
396.836
396.699
396.564
396.429
396.297
396.167
396.145
396.127
396.113
396.102
396.097
400
400
400
400
400
399.908
399.81
399.707
399.598
399.485
399.368
399.247
399.123
398.997
398.868
398.738
398.607
398.475
398.342
398.208
398.074
397.939
397.804
397.667
397.529
397.391
397.253
397.115
396.977
396.84
396.703
396.568
396.434
396.302
396.172
396.15
396.132
396.118
396.108
396.103
400
400
400
400
400
399.908
399.81
399.707
399.598
399.485
399.367
399.246
399.123
398.996
398.868
398.738
398.607
398.475
398.342
398.207
398.072
397.937
397.802
397.665
397.527
397.389
397.251
397.113
396.975
396.838
396.701
396.566
396.432
396.3
396.17
396.148
396.13
396.116
396.106