/*--------------------------------*- C++ -*----------------------------------*\
| =========                 |                                                 |
| \\      /  F ield         | OpenFOAM: The Open Source CFD Toolbox           |
|  \\    /   O peration     | Version:  5.0                                   |
|   \\  /    A nd           | Web:      www.OpenFOAM.org                      |
|    \\/     M anipulation  |                                                 |
\*---------------------------------------------------------------------------*/
FoamFile
{
    version     2.0;
    format      ascii;
    class       volScalarField;
    location    "1300/air";
    object      alphat;
}
// * * * * * * * * * * * * * * * * * * * * * * * * * * * * * * * * * * * * * //

dimensions      [1 -1 -1 0 0 0 0];

internalField   nonuniform List<scalar> 
243000
(
0.000150817
0.000156579
0.000154957
0.000151156
0.000145896
0.000139882
0.000133566
0.000127252
0.000121122
0.000115307
0.000109833
0.000104739
9.99997e-05
9.57228e-05
9.1979e-05
8.90166e-05
8.69989e-05
8.59265e-05
8.81306e-05
8.77109e-05
8.74972e-05
8.75108e-05
8.70187e-05
0.00039188
8.45231e-05
0.000372955
8.295e-05
7.96356e-05
0.000340585
0.000351987
0.000648578
0.000698227
0.000713577
0.000717619
0.000714372
0.00070619
0.000694605
0.000680748
0.000665312
0.000648783
0.000631359
0.000613443
0.00059524
0.000577755
0.000561708
0.000548692
0.000539388
0.000534935
0.000527703
0.000530767
0.000526625
0.000518489
0.000505229
0.000488515
0.00046609
0.000441591
0.0004094
0.000378615
0.000346543
0.000327748
0.000691463
0.000743213
0.000762233
0.000768702
0.00076674
0.00075928
0.000747982
0.000734078
0.000718344
0.000701373
0.000683474
0.000665237
0.000647001
0.000629989
0.000615043
0.000603922
0.000597075
0.000594828
0.000594173
0.000593619
0.000589645
0.000581122
0.000566918
0.00054709
0.000522053
0.000493236
0.000460974
0.000424978
0.000386364
0.000353592
0.000699636
0.00075582
0.000782242
0.00079305
0.000794551
0.000789694
0.000780332
0.000767823
0.000753083
0.000736845
0.000719552
0.000701984
0.000684622
0.000668916
0.00065583
0.000647267
0.000643393
0.000643767
0.00064521
0.000645088
0.000640986
0.000631811
0.000616712
0.000595643
0.000569224
0.000538334
0.000503547
0.000464154
0.000422948
0.000384906
0.000688099
0.00074704
0.000780617
0.000798516
0.000805358
0.000804292
0.000797867
0.000787641
0.000774723
0.000759986
0.000744031
0.000727813
0.000711989
0.00069822
0.000687576
0.00068206
0.000681448
0.000684513
0.000687634
0.000688064
0.000683676
0.000673767
0.000657847
0.000635958
0.000608671
0.000576655
0.000540422
0.000499196
0.000456116
0.000415526
0.000661817
0.000724914
0.000766191
0.000790763
0.000803292
0.000806951
0.000804168
0.000796839
0.00078639
0.0007737
0.000759625
0.000745269
0.000731483
0.000720138
0.000712403
0.000710331
0.000713094
0.000718823
0.000723483
0.00072436
0.000719639
0.000709006
0.000692348
0.000669846
0.000642031
0.000609463
0.000572581
0.000530569
0.000486082
0.000443933
0.00062557
0.000692657
0.000741035
0.000772432
0.000791116
0.000800019
0.000801584
0.000797858
0.000790152
0.000779848
0.000768156
0.000756069
0.000744718
0.000736203
0.000731768
0.000733443
0.000739631
0.000747936
0.000754015
0.000755264
0.000750215
0.000738918
0.000721614
0.000698635
0.000670522
0.000637762
0.00060072
0.000558575
0.000513143
0.000469966
0.000586509
0.000656957
0.000709365
0.000746113
0.00077082
0.000785219
0.000791522
0.000791818
0.000787516
0.00078023
0.000770975
0.00076143
0.00075286
0.000747524
0.00074672
0.000752371
0.000761993
0.00077276
0.000780135
0.000781716
0.000776376
0.000764504
0.000746642
0.000723297
0.000695039
0.00066232
0.000625422
0.000583537
0.000537747
0.000493844
0.000549012
0.000618834
0.000676096
0.000717175
0.000745436
0.000764369
0.000775412
0.000779949
0.000779443
0.000775416
0.000769103
0.000762348
0.000756787
0.000754917
0.000758062
0.000767827
0.000780878
0.000793964
0.000802529
0.000804419
0.000798845
0.000786496
0.000768176
0.00074456
0.000716265
0.000683732
0.000647163
0.000605868
0.0005599
0.000515662
0.00052276
0.000579021
0.000640033
0.000686277
0.000718961
0.000741251
0.000755186
0.000763591
0.000766881
0.000766383
0.000763275
0.000759569
0.000757212
0.000759064
0.000766377
0.000780341
0.000796806
0.000812058
0.000821715
0.000823909
0.000818169
0.000805453
0.000786779
0.000762982
0.000734732
0.000702477
0.000666376
0.000625646
0.000579916
0.000535592
0.000519824
0.000544908
0.000601587
0.000652361
0.000690261
0.00071682
0.00073428
0.000745212
0.000751164
0.000753958
0.000754163
0.000753684
0.000754718
0.000760478
0.00077213
0.000790339
0.000810144
0.000827431
0.000838096
0.0008406
0.000834777
0.000821802
0.000802886
0.000778998
0.000750865
0.000718943
0.000683391
0.000643153
0.00059789
0.000553903
0.000553167
0.000535162
0.000567205
0.000615994
0.000658614
0.000690215
0.000711973
0.000726139
0.000734608
0.000739319
0.000742501
0.000745223
0.000749737
0.000759588
0.000775695
0.000798142
0.000821158
0.000840391
0.00085198
0.000854816
0.000848998
0.00083588
0.000816837
0.000792951
0.000764998
0.000733501
0.000698343
0.000658622
0.000614104
0.00057052
0.000601024
0.000569752
0.000555943
0.000583915
0.000625161
0.000661102
0.000687706
0.000705859
0.000717448
0.000724517
0.000729322
0.000734758
0.000742683
0.000756724
0.000777375
0.000803988
0.000830074
0.000851151
0.000863612
0.000866813
0.000861094
0.000847955
0.000828906
0.000805114
0.000777407
0.000746288
0.000711528
0.000672312
0.000628713
0.000585618
0.000648186
0.00062281
0.000585499
0.000573791
0.00059677
0.000631092
0.000661512
0.000684054
0.000699351
0.000709263
0.000716118
0.000723019
0.000733972
0.000752149
0.000777304
0.000808039
0.000837046
0.000859872
0.000873183
0.000876794
0.000871274
0.000858239
0.000839302
0.000815693
0.00078835
0.00075757
0.00072318
0.000684411
0.000641872
0.00059936
0.000694231
0.000673443
0.000642917
0.000603043
0.000589331
0.000606823
0.000635271
0.000660989
0.000680166
0.000693351
0.000702672
0.000711282
0.000724117
0.000746155
0.000775754
0.000810415
0.000842183
0.000866662
0.000880857
0.000884926
0.000879707
0.000866899
0.000848185
0.000824905
0.00079793
0.000767526
0.000733485
0.000695109
0.000653732
0.00061188
0.000739354
0.000721266
0.000695098
0.000655856
0.000615502
0.000600985
0.000614635
0.000638402
0.000660232
0.000676732
0.000688849
0.000699573
0.00071377
0.000739027
0.000772805
0.000811174
0.00084554
0.000871606
0.000886734
0.000891333
0.000886521
0.000874066
0.000855735
0.000832912
0.00080633
0.000776315
0.000742606
0.000704583
0.000664439
0.0006233
0.000783782
0.000766897
0.000743206
0.000710124
0.000663364
0.000622571
0.000608849
0.000620537
0.000640913
0.000659714
0.000674647
0.000687772
0.000703774
0.000731058
0.000768566
0.000810412
0.00084709
0.000874723
0.000890881
0.000896115
0.000891847
0.000879895
0.000862102
0.000839784
0.000813681
0.000784079
0.000750707
0.000713018
0.00067414
0.000633744
0.000827516
0.000810828
0.000788176
0.00075761
0.000714345
0.000664064
0.000624769
0.000613819
0.000625117
0.000643246
0.000660297
0.000675875
0.000694009
0.000722505
0.000763136
0.000808102
0.000847152
0.000876104
0.000893329
0.000899379
0.000895788
0.000884497
0.000867371
0.000845647
0.0008201
0.000790956
0.000757962
0.000721103
0.000683155
0.000643401
0.000870536
0.000853382
0.000830907
0.000801515
0.000762126
0.000712076
0.000658942
0.000623436
0.000617028
0.000629139
0.000646389
0.000664027
0.000684409
0.000714076
0.000756675
0.000804284
0.000845456
0.000876017
0.000894214
0.000901198
0.000898434
0.000887997
0.000871629
0.000850624
0.000825727
0.000797111
0.00076454
0.000728762
0.000691635
0.000652438
0.000912751
0.000894713
0.000871882
0.000842892
0.000806293
0.0007588
0.000701712
0.000648657
0.000620365
0.000619907
0.000633942
0.000652568
0.000675005
0.000706051
0.000749358
0.000799017
0.000842062
0.00087417
0.000893683
0.000901645
0.000899896
0.000890416
0.000874975
0.000854846
0.000830724
0.000802737
0.000770639
0.000736023
0.000699681
0.00066098
0.000954057
0.000934866
0.000911352
0.000882321
0.000847384
0.000802289
0.000745679
0.000683804
0.000635994
0.000618043
0.000624372
0.000642025
0.00066593
0.000698321
0.000741469
0.000792385
0.00083702
0.000870597
0.000891448
0.000900709
0.000900095
0.000891826
0.000877505
0.000858421
0.000835229
0.000808011
0.000776486
0.00074301
0.000707408
0.000669156
0.000994464
0.000973938
0.000949567
0.000920414
0.000886507
0.000842948
0.000787812
0.000722851
0.000661424
0.000624883
0.000619213
0.00063314
0.000657431
0.000690953
0.000734197
0.000784656
0.00083035
0.000865316
0.000887609
0.000898366
0.000899145
0.000892202
0.000879257
0.000861419
0.000839351
0.000813096
0.000782483
0.000749947
0.000714987
0.000677091
0.00103416
0.00101241
0.000987415
0.000959886
0.000925361
0.000881976
0.000827744
0.000762092
0.000692805
0.000640087
0.000619719
0.000626903
0.000650039
0.000684135
0.000727461
0.000776685
0.000822243
0.00085829
0.000882017
0.000894387
0.000896781
0.000891383
0.000880055
0.000863755
0.000843098
0.000818083
0.000788685
0.000757045
0.000722665
0.000685019
0.00107466
0.00105322
0.0010288
0.000999327
0.000963463
0.000919629
0.000865661
0.00080019
0.000727034
0.000662237
0.000626725
0.000624371
0.000644503
0.000678331
0.000721557
0.000769822
0.000814707
0.000850644
0.00087523
0.000888986
0.000893031
0.000889386
0.000879716
0.000865176
0.000846266
0.00082287
0.00079513
0.000764483
0.000730649
0.000693154
0.00111421
0.00109391
0.00106871
0.00103724
0.00100006
0.000955813
0.000902286
0.000837609
0.000763154
0.000690435
0.000641158
0.000627392
0.000642348
0.000674916
0.000717745
0.000765189
0.000809341
0.00084513
0.000870447
0.000885512
0.000891115
0.000888985
0.000880681
0.000867437
0.000849888
0.000828163
0.000802238
0.000772713
0.000739409
0.00070189
0.00114568
0.00112563
0.00110078
0.00107006
0.00103417
0.000991351
0.00093959
0.00087693
0.000803362
0.000726619
0.000666434
0.000640577
0.000648263
0.000678333
0.000720287
0.000766743
0.000810061
0.000845515
0.000871091
0.000886814
0.000893475
0.000892689
0.00088559
0.000873427
0.000856996
0.000836553
0.000812025
0.000783543
0.000750622
0.000712663
0.00117351
0.00115383
0.00113113
0.0011039
0.00107116
0.00103161
0.00098356
0.000925126
0.000855584
0.000779759
0.000713855
0.000677702
0.000676613
0.000702725
0.000742642
0.000786911
0.000827906
0.000861563
0.000886033
0.000901338
0.000908115
0.00090775
0.000901146
0.000889503
0.000873629
0.000853857
0.000830037
0.000802106
0.000769245
0.000730255
0.001215
0.00119634
0.00117547
0.00115155
0.00112364
0.00109042
0.00105022
0.00100128
0.000942646
0.000876985
0.000816126
0.000777956
0.000770799
0.000790574
0.000825069
0.00086291
0.000896861
0.000924594
0.000944385
0.00095609
0.000960318
0.000958086
0.000950147
0.000937509
0.000920877
0.000900481
0.000876303
0.000847974
0.000814244
0.000772796
0.00129494
0.00128041
0.00126608
0.00125154
0.00123588
0.00121763
0.00119504
0.00116675
0.00113213
0.00109192
0.00105368
0.00102903
0.00102329
0.00103521
0.00105679
0.00107991
0.00109918
0.00111398
0.00112316
0.00112667
0.00112491
0.00111836
0.00110761
0.00109312
0.00107523
0.00105326
0.00102832
0.00100004
0.000966703
0.000925818
0.00156276
0.00156177
0.00156482
0.00156736
0.00156857
0.00156769
0.001564
0.00155743
0.0015477
0.00153243
0.00151783
0.00150765
0.00150283
0.00150343
0.00150688
0.00151245
0.00151659
0.00152044
0.00152312
0.00152512
0.00152618
0.00152649
0.00152576
0.00152374
0.00151961
0.00150887
0.00149797
0.00148597
0.00146903
0.00144775
0.000183414
0.000193207
0.000192828
0.00018888
0.000182877
0.000175796
0.000168247
0.000160635
0.00015319
0.000146096
0.00013942
0.00013328
0.000127695
0.000122878
0.000118923
0.000116129
0.000114521
0.00011412
0.000114542
0.000115463
0.000115802
0.000114792
0.000111828
0.000106684
9.95217e-05
9.07345e-05
8.3288e-05
0.000360383
0.000363571
8.72189e-05
0.000658271
0.000758046
0.000745987
0.000704402
0.000656515
0.000609136
0.000566342
0.000528669
0.000495772
0.000467422
0.00044276
0.000422088
0.000404464
0.000391423
0.000381978
0.000377327
0.00037445
0.000373617
0.000372288
0.000370779
0.000369029
0.000366209
0.000358316
0.000344438
0.00032434
0.000297118
0.000273703
0.000325107
0.000405723
0.000356642
0.00102041
0.00120045
0.00122987
0.00120063
0.00114679
0.00108548
0.00102535
0.000969823
0.000919762
0.000875836
0.000837344
0.000805502
0.000779193
0.000761595
0.000750987
0.00074849
0.000746999
0.000744716
0.000735795
0.000721832
0.000705584
0.000688301
0.000666967
0.000635866
0.000593969
0.00054073
0.000485022
0.000447254
0.000458365
0.000487506
0.00120311
0.0014403
0.00153624
0.00154081
0.00150622
0.00145275
0.00139334
0.00133492
0.00128019
0.00123119
0.00118832
0.00115406
0.00112807
0.00111463
0.00111123
0.00111818
0.00112344
0.00112131
0.00110454
0.00107591
0.00104162
0.00100612
0.000965781
0.000915053
0.000851493
0.000774138
0.000688883
0.000603609
0.00055043
0.000542533
0.00128077
0.0015315
0.00167362
0.00173459
0.00174069
0.00170901
0.00166191
0.00161083
0.00156068
0.00151498
0.00147576
0.00144689
0.00142937
0.00142809
0.00143975
0.00146272
0.00147797
0.00147709
0.00145322
0.00141061
0.00135853
0.0013045
0.00124606
0.00117723
0.00109463
0.000996474
0.000887807
0.000772319
0.000674061
0.000618508
0.00128005
0.00154792
0.00172999
0.00183035
0.00187134
0.00187002
0.00184325
0.00180627
0.00176756
0.00173158
0.00170249
0.00168559
0.00168333
0.00170138
0.00173523
0.001779
0.00180569
0.00180616
0.00177554
0.00171979
0.00165135
0.00158014
0.00150526
0.0014206
0.00132147
0.00120736
0.00108122
0.000944985
0.000816628
0.000720215
0.00121905
0.00148927
0.00170203
0.00184208
0.00192019
0.00195116
0.00195094
0.00193477
0.00191009
0.0018886
0.00187519
0.00187583
0.00189462
0.00193834
0.00200139
0.00206897
0.00210676
0.00210794
0.00207073
0.0020027
0.00191951
0.00183302
0.00174356
0.00164477
0.00153302
0.00140681
0.00126779
0.00111706
0.000969431
0.00084053
0.00109469
0.00135216
0.00159598
0.00178021
0.00189867
0.00196448
0.00199358
0.00200087
0.00199738
0.00199479
0.00200033
0.0020232
0.00206831
0.00214446
0.00224192
0.00233504
0.00238257
0.00238335
0.0023397
0.00226036
0.00216408
0.00206429
0.00196208
0.00185137
0.00172963
0.00159432
0.00144624
0.00128563
0.00112588
0.000971673
0.000954032
0.00117786
0.00143171
0.00165355
0.0018151
0.00191864
0.00198031
0.00201382
0.00203458
0.00205518
0.00208487
0.00213309
0.00220978
0.00232512
0.0024593
0.00257893
0.00263494
0.0026336
0.00258403
0.00249447
0.00238677
0.00227561
0.00216194
0.00204163
0.00191206
0.00177035
0.00161604
0.00144844
0.00128171
0.0011076
0.000828293
0.000998611
0.00123898
0.00148037
0.00167669
0.00181939
0.00191755
0.00197907
0.0020274
0.00207525
0.00213266
0.00221062
0.00232411
0.00248343
0.00265637
0.00280159
0.00286554
0.0028604
0.00280547
0.00270693
0.00258955
0.00246894
0.00234495
0.00221684
0.00208126
0.00193532
0.00177721
0.00160635
0.0014353
0.00124399
0.000750739
0.000845212
0.00104573
0.00128349
0.0015011
0.00167604
0.00180836
0.00190328
0.00198186
0.00205936
0.00214807
0.00225998
0.0024146
0.002623
0.00283533
0.00300438
0.00307517
0.00306531
0.0030058
0.00289973
0.00277463
0.00264551
0.00251324
0.00237862
0.00223848
0.00208976
0.00193081
0.0017574
0.00158159
0.00137662
0.000740623
0.000752502
0.000882899
0.00108889
0.00130823
0.00150422
0.00166533
0.00179186
0.00190355
0.00201386
0.00213497
0.00228447
0.00248687
0.00274758
0.00299764
0.00318831
0.00326453
0.0032501
0.0031865
0.0030748
0.0029439
0.00280638
0.00266815
0.00252845
0.00238499
0.002235
0.00207491
0.00189995
0.00172003
0.00150348
0.000793825
0.000743676
0.000788648
0.000928546
0.00112339
0.00132227
0.00150227
0.00165584
0.00179852
0.00194148
0.00209821
0.00228715
0.00254271
0.00285849
0.00314373
0.00335248
0.00343418
0.0034161
0.00334929
0.00323397
0.00309853
0.00295476
0.00281147
0.00266781
0.00252205
0.00237164
0.00220963
0.00203446
0.00185015
0.00162465
0.000911192
0.000824879
0.000793134
0.000846128
0.000978536
0.00115438
0.00133625
0.001508
0.0016758
0.00184868
0.00204063
0.00227143
0.00258379
0.0029486
0.00327269
0.00349691
0.00358457
0.00356497
0.00349567
0.00337881
0.00323876
0.00309152
0.00294445
0.00279796
0.00265139
0.00249914
0.00233627
0.00216109
0.00197269
0.00174072
0.00109781
0.000986989
0.000907091
0.000872858
0.00091512
0.00103123
0.00118972
0.00136275
0.0015455
0.00174288
0.001967
0.00224209
0.00261086
0.00302596
0.00338414
0.00362209
0.00371508
0.00369788
0.00362677
0.00351006
0.00336716
0.00321777
0.00306874
0.00292079
0.00277324
0.00261935
0.00245592
0.00228128
0.00208808
0.00185185
0.00135866
0.00123142
0.00111637
0.00101877
0.000965912
0.000988571
0.00108942
0.00123831
0.00142005
0.00163266
0.00188408
0.00220448
0.00262451
0.0030894
0.0034771
0.00372665
0.00382495
0.00381276
0.00374327
0.00362751
0.00348493
0.00333548
0.00318566
0.00303775
0.00288844
0.00273336
0.00256974
0.00239738
0.00219738
0.00195561
0.00169232
0.00155331
0.00140817
0.00126362
0.00113449
0.0010561
0.00106233
0.00115718
0.00131483
0.00152829
0.00180043
0.00216225
0.00262738
0.00313722
0.0035505
0.00380946
0.00391353
0.00390888
0.00384331
0.00373215
0.0035927
0.00344481
0.00329565
0.00314801
0.00299789
0.00284219
0.00267881
0.00250909
0.00230134
0.0020531
0.00206867
0.00192569
0.00176043
0.00158213
0.00139723
0.0012327
0.0011344
0.00113756
0.00124688
0.00144169
0.00172525
0.00211972
0.00262481
0.00316704
0.00359986
0.00386874
0.00397952
0.00398486
0.00392666
0.00382285
0.00368961
0.00354541
0.00339862
0.00325158
0.00310194
0.00294662
0.00278556
0.00261417
0.00239991
0.00214496
0.00247267
0.00232603
0.00215057
0.00194915
0.00172446
0.00149451
0.00130172
0.00120177
0.00122718
0.00138542
0.00166523
0.00208217
0.00261154
0.00317404
0.00362018
0.00389833
0.00402082
0.00403952
0.00399224
0.00389624
0.00377236
0.00363531
0.00349319
0.00334814
0.00320043
0.00304768
0.00289028
0.00271411
0.00249367
0.00223204
0.00288359
0.00273527
0.00255528
0.00233886
0.00208681
0.00180994
0.00154264
0.00134466
0.0012743
0.00136201
0.00162533
0.00204598
0.00258586
0.00315826
0.00361197
0.00389734
0.00403402
0.00406781
0.00403398
0.00394946
0.0038346
0.00370621
0.00357336
0.00343705
0.00329568
0.00314826
0.00299304
0.00281062
0.00258372
0.00231533
0.00327646
0.0031292
0.00294874
0.00272419
0.00245492
0.00214672
0.00182597
0.00154768
0.00138286
0.00138641
0.00159995
0.00201255
0.00254803
0.0030981
0.00355725
0.00385146
0.00400391
0.00405617
0.00404016
0.00397365
0.00387241
0.0037551
0.00363278
0.00350621
0.00337441
0.00323775
0.00308964
0.00290184
0.00266936
0.00239449
0.00362242
0.00347964
0.00330193
0.00307563
0.00279824
0.00247224
0.00211744
0.00178102
0.00153513
0.00145489
0.00159896
0.00196036
0.00246225
0.00299581
0.003439
0.00373848
0.003909
0.0039834
0.003989
0.00394785
0.00386916
0.00377088
0.00366391
0.00355103
0.00343099
0.0033054
0.00316521
0.00297985
0.00274367
0.00246621
0.00388876
0.00375391
0.00358226
0.00336109
0.00308451
0.00275274
0.00238082
0.00200811
0.00170104
0.00154339
0.00159945
0.00190739
0.00234829
0.00282197
0.00322607
0.00352332
0.00371542
0.00381047
0.00384409
0.003836
0.00378919
0.00371951
0.00363728
0.00354645
0.00344692
0.00333692
0.00320693
0.00303435
0.00280759
0.00253264
0.0040371
0.00391262
0.00375584
0.00354846
0.00328169
0.00295445
0.00257941
0.00218962
0.0018424
0.0016171
0.00158221
0.00179219
0.00215239
0.00254653
0.00289917
0.00318349
0.00338936
0.00350455
0.00356922
0.00360018
0.00359229
0.00355995
0.00351182
0.00345248
0.00338217
0.00329896
0.00319053
0.0030361
0.00283092
0.00257361
0.00406013
0.00394394
0.00380059
0.00361355
0.00336433
0.00305076
0.00268622
0.00229889
0.00193547
0.00166161
0.00154344
0.00162748
0.00188331
0.00220286
0.00250194
0.00276736
0.0029651
0.00309462
0.00318166
0.00324262
0.00326744
0.00326913
0.00325571
0.00323125
0.00319574
0.003146
0.00307177
0.00295198
0.00277709
0.00255163
0.0039573
0.00385915
0.00373405
0.00356525
0.00333619
0.00304793
0.00271469
0.00235959
0.00201773
0.00173661
0.00157123
0.00155391
0.00170183
0.00194401
0.0021959
0.00242627
0.00259579
0.00271881
0.00281012
0.00287613
0.00291098
0.00292537
0.0029269
0.00291961
0.00290411
0.0028777
0.00283222
0.00275257
0.00261922
0.00242752
0.00375519
0.00368789
0.00359001
0.00345013
0.00325917
0.00302021
0.00275025
0.00246529
0.00218999
0.00195358
0.00179412
0.00173218
0.00180306
0.00196405
0.00216025
0.00233555
0.00246397
0.00255884
0.00263397
0.002681
0.0027025
0.00270613
0.0026983
0.00268271
0.0026606
0.00263068
0.00258736
0.0025198
0.00241204
0.00224159
0.00355875
0.00353178
0.00347483
0.00338056
0.00324564
0.00307562
0.00288419
0.00268517
0.00249264
0.00232119
0.00219255
0.00212679
0.00215344
0.00224917
0.0023798
0.00249813
0.00258472
0.00265101
0.00270275
0.00273129
0.00274036
0.0027352
0.00272023
0.00269751
0.00266731
0.00262858
0.00257757
0.00250428
0.00239571
0.00223095
0.00339353
0.00338453
0.00337293
0.00333584
0.00326869
0.00317244
0.00305453
0.00292959
0.00280464
0.002687
0.00259106
0.00253531
0.00253569
0.00258208
0.00265315
0.00272216
0.00277451
0.00281796
0.00285315
0.0028754
0.00288685
0.00289066
0.0028891
0.00288295
0.00287129
0.00285161
0.00282135
0.00277109
0.00269273
0.00257279
0.00330092
0.0033086
0.00331395
0.00330108
0.0032691
0.00322241
0.00315982
0.00308786
0.00301225
0.00293642
0.00287481
0.00283129
0.00281611
0.00282694
0.00285198
0.00288468
0.00291416
0.00293911
0.00296329
0.00298483
0.00300368
0.00302109
0.00303731
0.00305253
0.00306594
0.00307539
0.00308081
0.0030716
0.00304895
0.0030077
0.000212845
0.000222496
0.000220346
0.000215353
0.000208393
0.00020032
0.000191782
0.000183219
0.000174891
0.000167012
0.000159647
0.000152933
0.000146858
0.000141667
0.000137424
0.000134448
0.000132717
0.000132602
0.000134215
0.0001367
0.000138308
0.000137539
0.000133384
0.000125418
0.000113743
9.89707e-05
8.06282e-05
0.000362497
0.000362871
9.12131e-05
0.000853604
0.000999013
0.00101666
0.000975116
0.00091508
0.000854062
0.00079851
0.000749453
0.000706322
0.000668784
0.0006353
0.000606182
0.000579127
0.000556797
0.000536652
0.000520795
0.000505003
0.000496743
0.000495245
0.000500361
0.000508627
0.000513877
0.000505105
0.000475991
0.000430672
0.000374386
0.000313426
0.000349566
0.000378191
0.000380894
0.00134268
0.0015975
0.00168743
0.00167864
0.00162362
0.00155212
0.00147925
0.00141019
0.00134643
0.00128926
0.00123759
0.00119283
0.00115188
0.00111915
0.00109029
0.00106641
0.00103821
0.00101654
0.000997512
0.000983646
0.000975894
0.000965632
0.000935856
0.000880981
0.000794464
0.000684687
0.000569563
0.000495057
0.000485946
0.000570227
0.0016495
0.00197586
0.00212285
0.00215326
0.00212968
0.00207279
0.00200549
0.00193644
0.00186959
0.00180843
0.00175355
0.00170791
0.0016689
0.00164073
0.00161712
0.00159642
0.00156363
0.00152846
0.00148815
0.00145057
0.00141938
0.00139029
0.0013398
0.00125557
0.00113433
0.000982212
0.000819094
0.0006766
0.000600536
0.000641851
0.00180024
0.00212931
0.00232859
0.00243825
0.00246638
0.00243566
0.00238657
0.00232975
0.00227141
0.00221756
0.00217098
0.00213651
0.00211185
0.0021005
0.0020931
0.00208319
0.00204922
0.00199938
0.00193646
0.00187518
0.00181998
0.00176872
0.00170055
0.00159512
0.00144863
0.00126608
0.00106689
0.000877527
0.000743817
0.000729398
0.0018898
0.00220351
0.0024338
0.00258042
0.00265047
0.00266814
0.0026476
0.00261142
0.00256973
0.00253198
0.00250301
0.00248937
0.00248994
0.00250597
0.00252309
0.00252795
0.00249243
0.00242595
0.00233939
0.00225478
0.00217724
0.00210604
0.00202199
0.00190175
0.00173874
0.00153601
0.0013113
0.00108853
0.00091097
0.000846666
0.00192265
0.00221009
0.00245422
0.00263251
0.00274204
0.00279631
0.00280967
0.00279955
0.00278012
0.0027661
0.00276294
0.00277909
0.00281439
0.00286742
0.00291533
0.00293558
0.00289597
0.00281048
0.00270017
0.00259311
0.00249519
0.00240696
0.00230925
0.00217863
0.00200591
0.00179171
0.00155052
0.00130389
0.00109456
0.000989612
0.00184634
0.00210979
0.00237619
0.00259127
0.0027415
0.00283565
0.00288514
0.00290707
0.00291801
0.00293314
0.00296164
0.00301581
0.00309434
0.0031929
0.00327731
0.00331111
0.00326204
0.0031563
0.00302322
0.00289511
0.00277921
0.00267674
0.00256716
0.00242925
0.00225169
0.00203254
0.00178408
0.00152364
0.00128928
0.00115057
0.00170065
0.00194104
0.0022179
0.00246554
0.00265924
0.00279729
0.00288595
0.00294463
0.0029901
0.00304106
0.00310945
0.00320728
0.00333911
0.00349017
0.00361294
0.00365706
0.00359328
0.00346679
0.00331333
0.00316605
0.00303468
0.00292027
0.00280047
0.00265727
0.00247825
0.00225915
0.00200907
0.00173889
0.00148956
0.00132225
0.00153718
0.00173616
0.00200988
0.00228228
0.00251262
0.00269039
0.00282126
0.00292093
0.00300674
0.00309877
0.00321303
0.0033591
0.00355534
0.00376528
0.00392366
0.0039745
0.00389202
0.00374567
0.00357514
0.00341099
0.00326687
0.00314182
0.00301352
0.00286638
0.00268759
0.00247378
0.00222209
0.00194789
0.00168847
0.00149705
0.00138717
0.00152172
0.00177144
0.00205576
0.0023167
0.00253228
0.00270349
0.00284417
0.00297469
0.00311292
0.00327924
0.00348546
0.0037538
0.0040204
0.00421039
0.00426364
0.00416056
0.00399671
0.00381307
0.00363489
0.00348113
0.00334476
0.00321022
0.00306019
0.00288324
0.00267248
0.00242323
0.0021501
0.00188482
0.00167201
0.00127986
0.00133072
0.00153037
0.00180601
0.00208605
0.00233442
0.00254457
0.0027272
0.00290194
0.00309046
0.00331398
0.00358992
0.0039423
0.00425656
0.0044726
0.00452408
0.00440108
0.00422407
0.00403113
0.00384257
0.00368171
0.00353565
0.00339496
0.00324214
0.00306734
0.00285837
0.00261412
0.00234629
0.00207892
0.00184777
0.00123654
0.00120349
0.00132806
0.00156457
0.00184283
0.00211251
0.0023564
0.00257969
0.00280029
0.00304056
0.0033229
0.00367822
0.00410819
0.0044717
0.00470848
0.00475501
0.00461624
0.00443159
0.00423296
0.0040385
0.00387166
0.00371804
0.00357148
0.00341506
0.00324115
0.00303516
0.00279636
0.00253481
0.00226921
0.00202348
0.00128326
0.0011836
0.00121676
0.0013794
0.00162259
0.00189079
0.00215576
0.00241389
0.00267895
0.0029723
0.00331492
0.00375606
0.00425386
0.00466263
0.00491542
0.0049558
0.00480834
0.00462256
0.00442196
0.00422585
0.00405261
0.00389457
0.00374257
0.00358395
0.00340916
0.0032056
0.00297209
0.00271751
0.00245267
0.00219826
0.00143525
0.00129351
0.0012419
0.00130791
0.00147886
0.00170654
0.00196731
0.00224635
0.00254921
0.0028933
0.00330118
0.0038248
0.00438172
0.00482582
0.00509045
0.00512617
0.00497871
0.00479891
0.00460022
0.004406
0.00422946
0.00406757
0.00391246
0.00375207
0.00357492
0.00337271
0.00314394
0.00289475
0.00263
0.00237083
0.00171255
0.00154656
0.00143683
0.00139822
0.00145135
0.00160956
0.0018247
0.00209915
0.00242507
0.00281179
0.00329134
0.00388764
0.00448369
0.00496244
0.00523003
0.00526507
0.00512727
0.00496068
0.00476815
0.00457869
0.00440254
0.00423941
0.00408321
0.00392181
0.00374145
0.00353959
0.00331471
0.00306654
0.00280145
0.00253917
0.00210714
0.00192962
0.00177956
0.00166255
0.00160133
0.00162325
0.00176484
0.00199864
0.00232242
0.00274356
0.00328769
0.00392928
0.00454845
0.00506211
0.00532879
0.00536987
0.00525157
0.00510515
0.00492345
0.00474144
0.0045682
0.0044084
0.0042538
0.00409398
0.00391206
0.00370952
0.00348496
0.00323461
0.00296751
0.00270053
0.00258568
0.00240267
0.00222477
0.00205144
0.00189835
0.00180157
0.00180955
0.00196436
0.00226213
0.00269934
0.00327877
0.0039395
0.00457941
0.00510465
0.00537958
0.00543523
0.00534567
0.00522565
0.00506019
0.00488866
0.0047205
0.00456436
0.00441634
0.00426295
0.00408589
0.00388016
0.00365211
0.00339863
0.00312823
0.00285522
0.00310232
0.00291493
0.00271685
0.00250407
0.00228543
0.00209088
0.00197709
0.00200582
0.0022296
0.00265715
0.00324616
0.00392621
0.0045669
0.0050907
0.00537353
0.00545164
0.00539901
0.00530937
0.00516689
0.00501052
0.00485231
0.00470098
0.00455604
0.00440559
0.00423987
0.00404143
0.00381131
0.00355584
0.00328222
0.00300284
0.00361009
0.00341754
0.00320409
0.00296385
0.00270082
0.00243622
0.00222141
0.0021343
0.00224745
0.00261699
0.00320198
0.00385249
0.00447858
0.00500289
0.00529618
0.0054034
0.00539386
0.00533634
0.0052238
0.00508928
0.00494637
0.00480498
0.00466663
0.00452265
0.00436061
0.00417534
0.0039518
0.00369944
0.00342528
0.00314115
0.0040674
0.00386906
0.00364397
0.00338512
0.00309316
0.00278203
0.00249363
0.00230432
0.00230016
0.00258981
0.00308699
0.00370896
0.00432998
0.00482352
0.00512696
0.00526803
0.00530387
0.00527942
0.00520118
0.00509389
0.00497381
0.00484992
0.00472507
0.00459289
0.00443924
0.00426429
0.00405568
0.00381614
0.00354751
0.00326343
0.00443912
0.00423627
0.00400355
0.00373326
0.00342361
0.00308341
0.00274521
0.00247564
0.0023685
0.00252584
0.00296589
0.00351776
0.00407799
0.00453673
0.00484496
0.00502232
0.00510037
0.00510814
0.00506901
0.00499538
0.00490458
0.00480624
0.00470378
0.00459224
0.00445864
0.00429694
0.00410929
0.0038822
0.00362549
0.00334875
0.0046969
0.00449373
0.00425892
0.00398411
0.00366599
0.00330981
0.00294067
0.00261328
0.00241424
0.00243278
0.00275384
0.00323146
0.00372676
0.00415157
0.00446133
0.0046701
0.00477937
0.00481952
0.00482
0.00478256
0.00472435
0.00465582
0.0045811
0.00449662
0.0043922
0.00425464
0.00408729
0.00389166
0.00365748
0.00339582
0.00482174
0.00462582
0.00439716
0.0041268
0.00381034
0.00345108
0.00306921
0.00270866
0.00244014
0.0023446
0.00251033
0.00288819
0.0033292
0.00372584
0.00403251
0.00426175
0.00438837
0.00445412
0.00448633
0.00447905
0.00444843
0.0044055
0.00435534
0.00429605
0.00421984
0.00411561
0.00397418
0.00380153
0.00359887
0.00336528
0.00481152
0.00463448
0.0044243
0.00417176
0.00387174
0.00352764
0.00315777
0.00279789
0.00250247
0.00233785
0.00237123
0.00262683
0.00299699
0.0033681
0.00366071
0.00388882
0.00401887
0.00409577
0.0041438
0.00415262
0.00413647
0.00410619
0.00406791
0.00402136
0.00396123
0.00387875
0.00376564
0.00361691
0.00343154
0.00321894
0.00469299
0.0045512
0.00437779
0.0041619
0.00389862
0.00359401
0.00326691
0.00294649
0.0026726
0.00248955
0.00244429
0.00259107
0.0028655
0.00318446
0.00344768
0.00364884
0.00376545
0.00383857
0.00388526
0.00389558
0.00388096
0.00385081
0.00381116
0.00376295
0.00370297
0.00362436
0.00352046
0.00338611
0.0032155
0.00299408
0.00453726