/*--------------------------------*- C++ -*----------------------------------*\
| =========                 |                                                 |
| \\      /  F ield         | OpenFOAM: The Open Source CFD Toolbox           |
|  \\    /   O peration     | Version:  5.0                                   |
|   \\  /    A nd           | Web:      www.OpenFOAM.org                      |
|    \\/     M anipulation  |                                                 |
\*---------------------------------------------------------------------------*/
FoamFile
{
    version     2.0;
    format      ascii;
    class       volScalarField;
    location    "1300/air";
    object      epsilon;
}
// * * * * * * * * * * * * * * * * * * * * * * * * * * * * * * * * * * * * * //

dimensions      [0 2 -3 0 0 0 0];

internalField   nonuniform List<scalar> 
243000
(
2.46612
3.21801
3.62079
3.88271
4.00964
4.03033
3.96877
3.84559
3.67643
3.47408
3.24528
2.99928
2.74
2.48286
2.23933
2.03001
1.8645
1.79547
1.83092
1.62387
1.51246
1.38574
1.22966
0.256814
0.979304
0.199742
0.750097
0.640058
0.122624
0.108293
1.24022
1.54972
1.65552
1.68476
1.66265
1.60681
1.52963
1.44046
1.34518
1.24782
1.15032
1.05544
0.96449
0.88221
0.810995
0.756292
0.718786
0.701661
0.696024
0.685742
0.668251
0.637191
0.589107
0.526923
0.454557
0.384094
0.31842
0.252482
0.191286
0.162029
1.5025
1.86893
2.01768
2.07072
2.0558
1.9972
1.91013
1.80631
1.69328
1.57667
1.45953
1.34625
1.23898
1.14426
1.06527
1.0092
0.975875
0.965136
0.964142
0.958797
0.938578
0.897522
0.832593
0.747108
0.64929
0.54763
0.448248
0.351739
0.264364
0.203038
1.55502
1.96466
2.18024
2.2734
2.28748
2.24674
2.16867
2.06688
1.95089
1.82812
1.70308
1.582
1.46815
1.37014
1.29215
1.24323
1.22197
1.2246
1.23279
1.23093
1.20635
1.15405
1.07228
0.965398
0.842372
0.712649
0.583622
0.457556
0.346609
0.261695
1.47712
1.89537
2.16552
2.31985
2.38137
2.37309
2.31768
2.23066
2.12361
2.00558
1.88274
1.76313
1.65152
1.5586
1.48964
1.45551
1.45285
1.47314
1.49297
1.49455
1.46459
1.40032
1.30213
1.17559
1.03029
0.876087
0.721321
0.568951
0.434585
0.329101
1.31103
1.72946
2.04568
2.25132
2.36183
2.39564
2.37211
2.30896
2.22042
2.1157
2.00336
1.89299
1.79106
1.71045
1.65761
1.64508
1.66589
1.70702
1.73988
1.74477
1.70905
1.63263
1.51876
1.37441
1.20966
1.03461
0.858009
0.683017
0.525899
0.401166
1.10562
1.50571
1.84806
2.09595
2.25399
2.33275
2.34794
2.31682
2.25161
2.16592
2.07124
1.97635
1.89021
1.82797
1.79732
1.81208
1.86014
1.9242
1.97079
1.97892
1.9374
1.84917
1.7206
1.56021
1.37866
1.18603
0.991129
0.797062
0.618683
0.475856
0.909883
1.28331
1.61959
1.88612
2.08239
2.20343
2.25881
2.26312
2.22807
2.16838
2.09364
2.0185
1.95305
1.91418
1.91077
1.95737
2.03548
2.12367
2.18418
2.19555
2.14849
2.04921
1.90706
1.73238
1.53635
1.32906
1.11896
0.90902
0.712045
0.552089
0.746741
1.0709
1.40028
1.67357
1.88195
2.03018
2.12163
2.16114
2.15892
2.12753
2.07783
2.02555
1.98397
1.9722
2.00038
2.08206
2.1923
2.30497
2.37931
2.39397
2.34193
2.23256
2.07818
1.89089
1.68248
1.46302
1.2404
1.01781
0.803906
0.628587
0.647915
0.876231
1.18579
1.46443
1.68667
1.85027
1.95881
2.02638
2.05476
2.05294
2.03023
2.00318
1.98754
2.00572
2.06833
2.18733
2.33112
2.46805
2.55585
2.57392
2.51764
2.39946
2.2343
2.03608
1.81718
1.58766
1.35494
1.12137
0.893416
0.704418
0.645047
0.733382
0.983408
1.25563
1.49047
1.67168
1.79929
1.88271
1.92969
1.95361
1.95761
1.95665
1.96815
2.01791
2.11686
2.27452
2.45232
2.61297
2.71374
2.73542
2.67587
2.55024
2.37594
2.16848
1.94084
1.70307
1.46237
1.21894
0.979625
0.779364
0.788087
0.704544
0.827439
1.05602
1.29257
1.49047
1.6387
1.74077
1.80426
1.84148
1.86754
1.89116
1.92967
2.01182
2.1481
2.34484
2.5561
2.73997
2.85304
2.87862
2.8169
2.68539
2.50368
2.28869
2.05395
1.80982
1.56156
1.30989
1.06206
0.851979
1.00886
0.86379
0.790022
0.903361
1.10481
1.30802
1.47513
1.59773
1.67998
1.73252
1.76956
1.81233
1.87602
1.99036
2.164
2.39926
2.64289
2.84906
2.97385
3.00375
2.94111
2.80541
2.61812
2.39733
2.15707
1.90755
1.65289
1.39429
1.14031
0.921843
1.26321
1.12525
0.938518
0.868559
0.965377
1.13786
1.31167
1.45294
1.55515
1.62478
1.67487
1.72663
1.81116
1.95589
2.16585
2.43848
2.7129
2.94025
3.07635
3.1111
3.04888
2.91078
2.7198
2.49489
2.25104
1.99684
1.73674
1.47207
1.21417
0.98878
1.54958
1.41867
1.23896
1.02093
0.940065
1.01593
1.16209
1.31008
1.42982
1.51726
1.58198
1.64399
1.73965
1.91101
2.15531
2.463
2.76621
3.01335
3.16084
3.20098
3.1406
3.00195
2.8091
2.58217
2.33583
2.07817
1.81347
1.54344
1.2836
1.05266
1.86945
1.73908
1.56086
1.3188
1.08443
0.996337
1.05622
1.18084
1.30731
1.41025
1.49018
1.56425
1.66667
1.85833
2.13334
2.4729
2.80266
3.06833
3.22736
3.27365
3.21658
3.07929
2.88686
2.66005
2.4122
2.15205
1.88349
1.60878
1.34868
1.11343
2.22476
2.08701
1.90294
1.66447
1.35975
1.11815
1.03426
1.08735
1.19635
1.3063
1.39975
1.4866
1.5983
1.80047
2.10102
2.4694
2.82161
3.10481
3.27589
3.32937
3.27744
3.14364
2.95385
2.72843
2.48064
2.21901
1.94741
1.66869
1.40969
1.17116
2.61605
2.46341
2.26546
2.01543
1.69427
1.36167
1.12637
1.05789
1.11201
1.21125
1.31238
1.4111
1.53347
1.73955
2.05946
2.45151
2.82519
3.12267
3.30629
3.36872
3.32368
3.1956
3.01058
2.78802
2.54173
2.27971
2.00605
1.72671
1.46784
1.22632
3.0434
2.86909
2.65063
2.38203
2.0532
1.67747
1.32674
1.115
1.0729
1.13447
1.23156
1.33869
1.47158
1.68038
2.01007
2.42016
2.81211
3.12475
3.31892
3.39206
3.35588
3.23604
3.05735
2.8396
2.59633
2.33515
2.06043
1.78337
1.52411
1.27958
3.50589
3.30383
3.05918
2.76624
2.42335
2.0238
1.6019
1.2607
1.09477
1.08725
1.16255
1.27123
1.41272
1.6255
1.95458
2.37607
2.78184
3.10883
3.31634
3.40002
3.37491
3.26502
3.0949
2.88411
2.64564
2.38676
2.11187
1.83849
1.57899
1.33145
4.0018
3.76654
3.49094
3.16959
2.8099
2.38758
1.91932
1.47867
1.18348
1.08
1.11184
1.21142
1.35754
1.57392
1.89514
2.3203
2.73553
3.0743
3.29496
3.39253
3.38028
3.28313
3.12405
2.92245
2.69078
2.43591
2.16203
1.89273
1.63306
1.38254
4.5307
4.25696
3.94647
3.59537
3.21423
2.76548
2.25979
1.74584
1.33356
1.11875
1.08589
1.16277
1.30736
1.52598
1.84108
2.25539
2.67374
3.022
3.25583
3.36917
3.37209
3.29007
3.14515
2.95521
2.73267
2.48395
2.21313
1.94746
1.68735
1.43347
5.09477
4.78069
4.43539
4.07495
3.65262
3.16434
2.61756
2.0436
1.5331
1.20431
1.08992
1.12974
1.26492
1.48264
1.79197
2.18795
2.5986
2.95192
3.19768
3.32754
3.34833
3.28347
3.15622
2.98145
2.77133
2.53167
2.26717
2.00441
1.74351
1.48564
5.71785
5.38362
5.01971
4.59946
4.12166
3.58484
2.99096
2.36296
1.77097
1.33471
1.12841
1.11698
1.23403
1.44658
1.74984
2.13129
2.52821
2.87441
3.12528
3.26869
3.30778
3.2636
3.15463
2.99828
2.80457
2.57806
2.32432
2.06519
1.8031
1.5404
6.37025
6.03021
5.62488
5.1435
4.60838
4.02282
3.38423
2.70752
2.04673
1.51268
1.20883
1.13387
1.22252
1.4261
1.72344
2.09402
2.47925
2.81973
3.07543
3.23181
3.28787
3.25965
3.16528
3.02182
2.84042
2.62751
2.38769
2.13353
1.86986
1.60059
6.92401
6.56808
6.14385
5.64281
5.09305
4.48577
3.81896
3.10443
2.38567
1.7626
1.35765
1.20705
1.25722
1.44882
1.74271
2.10747
2.48625
2.82404
3.08291
3.24684
3.31506
3.30118
3.21886
3.08504
2.91229
2.70798
2.47641
2.22515
1.95727
1.67673
7.43549
7.06796
6.65958
6.19024
5.65553
5.05172
4.37774
3.64221
2.87958
2.17714
1.66829
1.42894
1.42907
1.61047
1.90923
2.27671
2.65234
2.9862
3.24297
3.4081
3.48008
3.47056
3.39103
3.2581
3.08473
2.87909
2.64472
2.38729
2.1072
1.80505
8.24891
7.87421
7.46907
7.0224
6.52377
5.96156
5.32532
4.61376
3.84782
3.09545
2.49215
2.16023
2.10881
2.2866
2.60908
2.9908
3.3597
3.6791
3.91635
4.05871
4.10778
4.07418
3.96953
3.81016
3.60904
3.3737
3.10935
2.81857
2.49757
2.1386
9.97783
9.64477
9.32372
9.00527
8.67044
8.29065
7.83575
7.2902
6.65772
5.96966
5.36083
4.99417
4.91832
5.10446
5.44162
5.8139
6.13411
6.38554
6.54262
6.60104
6.56632
6.44818
6.26047
6.01551
5.72375
5.37938
5.0064
4.60637
4.16357
3.66166
17.4876
17.4543
17.5563
17.6408
17.6798
17.6478
17.5211
17.2986
16.976
16.4754
16.0057
15.6843
15.5367
15.5613
15.674
15.8522
15.9849
16.1072
16.1917
16.2538
16.285
16.2921
16.266
16.1991
16.0704
15.7305
15.3883
15.025
14.5193
13.9001
4.4381
6.04716
6.97895
7.57755
7.89933
8.0029
7.93597
7.73943
7.44192
7.07072
6.6429
6.18577
5.71209
5.25991
4.84888
4.51635
4.2609
4.07811
3.93315
3.76813
3.51051
3.11731
2.59638
2.00965
1.44138
0.959993
0.736494
0.149935
0.129216
0.484614
2.91533
3.52181
3.94906
4.21747
4.34579
4.36363
4.2911
4.1516
3.96478
3.7472
3.51271
3.27367
3.04118
2.82903
2.6513
2.52149
2.43975
2.39923
2.38576
2.36241
2.27679
2.09389
1.81656
1.47277
1.11424
0.78678
0.515338
0.295027
0.256142
0.234051
2.53949
3.00791
3.33702
3.54392
3.64588
3.66401
3.6117
3.50413
3.35649
3.18275
2.99545
2.80614
2.62495
2.46514
2.33824
2.2575
2.21927
2.21461
2.22961
2.23401
2.1836
2.04562
1.81316
1.51608
1.19371
0.883294
0.610552
0.393824
0.299206
0.277821
2.25741
2.67641
2.99129
3.1954
3.30665
3.3424
3.31456
3.23532
3.118
2.97506
2.81829
2.65937
2.50799
2.37865
2.28286
2.23324
2.22277
2.24019
2.26829
2.28073
2.23932
2.11541
1.90387
1.62595
1.3159
1.00656
0.725141
0.489827
0.350929
0.28293
1.96747
2.35301
2.67706
2.90112
3.03583
3.09536
3.09364
3.04158
2.95213
2.83725
2.70806
2.57642
2.45198
2.35077
2.28384
2.26333
2.2788
2.31583
2.35409
2.36914
2.32832
2.20842
2.00566
1.73826
1.43606
1.12842
0.840899
0.590007
0.418927
0.315229
1.64356
2.01132
2.35799
2.6066
2.76908
2.85486
2.87868
2.85342
2.79116
2.70388
2.60228
2.49828
2.40194
2.32996
2.29329
2.30325
2.34522
2.40173
2.44957
2.46551
2.42191
2.30121
2.10218
1.84166
1.54677
1.24155
0.951005
0.690188
0.496845
0.366953
1.27472
1.64298
2.01934
2.29962
2.49
2.60265
2.65163
2.65308
2.61784
2.55822
2.48484
2.40951
2.34298
2.30237
2.29804
2.34009
2.40976
2.48577
2.54286
2.5591
2.51133
2.38745
2.18952
1.93452
1.64534
1.34408
1.05366
0.787451
0.578794
0.429348
0.971552
1.30606
1.6799
1.9839
2.20097
2.33786
2.41141
2.43777
2.42944
2.39763
2.35284
2.30712
2.27195
2.26486
2.29453
2.37016
2.46818
2.56351
2.62934
2.64571
2.59327
2.46516
2.26692
2.01599
1.73224
1.43635
1.14842
0.880214
0.661346
0.497364
0.757012
1.03212
1.38145
1.69655
1.92223
2.07142
2.16504
2.2118
2.22795
2.22402
2.20812
2.19254
2.19014
2.21732
2.28275
2.39285
2.51902
2.6333
2.70699
2.72336
2.66625
2.53359
2.33504
2.08697
1.80852
1.51874
1.23509
0.967971
0.742653
0.568143
0.612889
0.815077
1.1242
1.43636
1.67389
1.83114
1.92811
1.98024
2.01702
2.04112
2.05419
2.069
2.09936
2.16154
2.26392
2.40867
2.56212
2.69427
2.77477
2.79099
2.72945
2.59249
2.39413
2.1486
1.87547
1.59231
1.314
1.04986
0.821932
0.640051
0.556008
0.658242
0.905586
1.19692
1.44225
1.61335
1.71921
1.77119
1.81134
1.85405
1.89548
1.93979
2.00243
2.10006
2.23974
2.41844
2.59761
2.74594
2.83213
2.84794
2.78231
2.64244
2.44427
2.20181
1.93435
1.65819
1.38587
1.12591
0.898182
0.712068
0.599506
0.59262
0.739805
0.983065
1.22317
1.40815
1.52891
1.5888
1.63346
1.67912
1.73711
1.80902
1.90228
2.03562
2.21192
2.42281
2.62567
2.7879
2.87889
2.89389
2.82464
2.68421
2.48633
2.24762
1.98643
1.71751
1.45149
1.19651
0.970949
0.783452
0.704338
0.650711
0.668277
0.817357
1.02758
1.21423
1.35005
1.42546
1.48068
1.5311
1.59194
1.6811
1.80228
1.97048
2.18191
2.42327
2.64652
2.82011
2.91487
2.92867
2.85699
2.71655
2.52067
2.28693
2.03279
1.77118
1.51158
1.26214
1.04032
0.853522
0.859963
0.797622
0.744073
0.757382
0.88302
1.04526
1.18404
1.27778
1.34625
1.40368
1.46878
1.56183
1.70583
1.90656
2.15086
2.42013
2.66004
2.84265
2.94021
2.95252
2.88062
2.74036
2.54799
2.32058
2.07411
1.81985
1.56682
1.32335
1.10648
0.922088
1.06779
1.00224
0.930286
0.850916
0.842016
0.928134
1.04542
1.14526
1.22497
1.29143
1.36285
1.45966
1.61624
1.84555
2.11969
2.41322
2.66727
2.85565
2.95548
2.96645
2.89475
2.75607
2.56907
2.34915
2.11086
1.86416
1.61795
1.381
1.16968
0.988541
1.33222
1.26038
1.17926
1.06261
0.946388
0.906817
0.955376
1.03592
1.11661
1.19082
1.2698
1.37299
1.536
1.78893
2.08924
2.40363
2.66956
2.86185
2.96187
2.97248
2.89962
2.76577
2.58501
2.37339
2.14364
1.90482
1.66572
1.43645
1.23045
1.05275
1.65728
1.5725
1.47488
1.34052
1.16629
1.01157
0.946503
0.967912
1.02886
1.10326
1.18852
1.29912
1.46989
1.73844
2.06065
2.39257
2.66856
2.86344
2.96288
2.97182
2.90173
2.77139
2.59736
2.39445
2.17352
1.94285
1.71105
1.48983
1.28909
1.1147
2.02166
1.92386
1.80804
1.65709
1.45473
1.22459
1.04178
0.964057
0.975793
1.03391
1.11977
1.23793
1.4184
1.69605
2.03592
2.38228
2.66725
2.8639
2.96325
2.97136
2.90241
2.77602
2.60889
2.41459
2.20241
1.97977
1.75627
1.5423
1.34616
1.17458
2.43098
2.3145
2.18056
2.01021
1.7864
1.51049
1.23419
1.04237
0.971159
0.991131
1.06745
1.19059
1.3817
1.66527
2.01923
2.37935
2.67101
2.86956
2.96783
2.97768
2.90934
2.78572
2.62477
2.43804
2.23347
2.01849
1.80319
1.59538
1.40272
1.23301
2.89062
2.75428
2.60079
2.40713
2.15823
1.84669
1.50237
1.20482
1.03026
0.985408
1.03824
1.16114
1.36218
1.65216
2.017
2.39116
2.68983
2.89115
2.98964
3.00211
2.93612
2.81462
2.65658
2.47339
2.27398
2.0657
1.85608
1.65215
1.46097
1.29157
3.41125
3.2559
3.08269
2.86275
2.5832
2.23448
1.83419
1.4466
1.16293
1.03213
1.03814
1.15253
1.36347
1.67433
2.05256
2.44141
2.74979
2.95456
3.05392
3.06815
3.00254
2.88089
2.72495
2.54338
2.34503
2.13702
1.92623
1.72015
1.52602
1.35429
4.01369
3.84226
3.65053
3.40281
3.08825
2.698
2.24345
1.77524
1.38384
1.15109
1.09342
1.19064
1.41748
1.75806
2.16874
2.57967
2.90264
3.11177
3.21518
3.22912
3.15897
3.02905
2.86232
2.67145
2.46524
2.24975
2.03015
1.81478
1.60994
1.42881
4.73909
4.55896
4.35118
4.07841
3.7296
3.29635
2.78562
2.23783
1.73733
1.38825
1.24892
1.31684
1.5704
1.96627
2.44253
2.9082
3.26018
3.48078
3.58367
3.58512
3.49178
3.33361
3.13572
2.91449
2.68035
2.43954
2.19578
1.95593
1.7283
1.5264
5.67447
5.4994
5.28098
4.99172
4.62023
4.15543
3.59547
2.97019
2.35602
1.87315
1.63105
1.65999
1.95873
2.46087
3.06435
3.63706
4.04182
4.28463
4.38046
4.3449
4.19308
3.96515
3.6914
3.39509
3.09036
2.7866
2.48754
2.19801
1.92177
1.67611
7.02388
6.85263
6.64065
6.36552
6.01074
5.55882
4.99296
4.32413
3.61343
2.99128
2.62966
2.61602
3.00662
3.70274
4.54989
5.31009
5.81255
6.08423
6.14258
6.00218
5.70311
5.30544
4.85631
4.39102
3.93096
3.48849
3.06727
2.66899
2.29271
1.95459
9.24132
9.11398
8.9654
8.77823
8.53621
8.21565
7.774
7.19749
6.51502
5.85098
5.43432
5.43726
6.01947
7.05927
8.31349
9.35635
9.97325
10.2275
10.1363
9.72658
9.08503
8.30738
7.47358
6.63737
5.83312
5.08032
4.38248
3.73643
3.13156
2.58721
13.5299
13.5284
13.5612
13.6258
13.7288
13.8286
13.8207
13.6799
13.3953
13.0694
12.9394
13.2568
14.2389
15.7863
17.532
18.8514
19.5119
19.6014
19.1092
18.1197
16.7834
15.2514
13.6497
12.0573
10.5275
9.09501
7.77083
6.54183
5.38454
4.33024
22.5908
22.8057
23.219
23.8109
24.6237
25.5603
26.4161
27.1407
27.7085
28.2544
29.0048
30.1264
31.7432
33.784
35.7555
37.0977
37.6488
37.4199
36.3447
34.5928
32.358
29.8328
27.184
24.4994
21.8319
19.2345
16.7451
14.3369
11.9783
9.75429
37.1313
37.5578
38.6532
40.1274
41.9655
43.7897
45.314
46.5252
47.4967
48.6165
50.0725
51.8954
53.8689
55.8799
57.3355
58.1077
58.3163
57.8559
56.642
54.8152
52.5297
49.9506
47.2208
44.3834
41.4181
38.2723
34.9967
31.5877
28.0086
24.4374
42.7301
43.1569
44.7528
46.6024
48.1096
49.0641
49.6152
49.9406
50.2742
50.8562
51.9504
53.4791
55.0115
56.3153
56.7481
56.5415
56.3561
55.8703
55.1115
54.0992
52.9272
51.7179
50.5527
49.4602
48.4059
47.1961
45.769
44.2338
42.5132
40.6862
6.93985
9.23804
10.416
11.2337
11.6911
11.8441
11.7571
11.488
11.0782
10.5682
9.98002
9.35244
8.69667
8.06872
7.49012
7.015
6.63498
6.3979
6.30761
6.2397
5.96659
5.34706
4.39052
3.25092
2.13935
1.23376
0.745575
0.149419
0.130261
0.553484
4.25361
4.97652
5.41817
5.728
5.88628
5.90984
5.8213
5.64925
5.41854
5.14904
4.85757
4.55735
4.26361
3.98882
3.75511
3.57508
3.45844
3.42914
3.515
3.63702
3.63918
3.41766
2.96952
2.37404
1.71879
1.10791
0.632325
0.321397
0.288134
0.252353
3.8197
4.35137
4.71162
4.94044
5.04566
5.05048
4.96784
4.81705
4.61728
4.38509
4.13539
3.8807
3.63563
3.41387
3.23279
3.10488
3.03271
3.03626
3.13945
3.28174
3.33271
3.20254
2.87183
2.37826
1.81566
1.25853
0.778342
0.443347
0.325977
0.286854
3.52628
3.99274
4.352
4.58968
4.71041
4.73404
4.67419
4.54782
4.37289
4.16522
3.93928
3.70802
3.48682
3.29235
3.1407
3.04289
2.99663
3.01988
3.12488
3.25748
3.31182
3.20202
2.9147
2.48074
1.9625
1.4264
0.940007
0.566812
0.371352
0.28757
3.22237
3.62354
3.99988
4.27534
4.43568
4.49265
4.46448
4.3672
4.21984
4.03853
3.83762
3.63047
3.4347
3.2686
3.14686
3.0798
3.06148
3.10579
3.21234
3.32939
3.37092
3.26553
2.99468
2.59105
2.10218
1.5829
1.09501
0.693771
0.442227
0.314925
2.88062
3.21841
3.60981
3.92524
4.13133
4.22887
4.23721
4.17344
4.05783
3.90742
3.7365
3.55941
3.39463
3.26226
3.17537
3.14382
3.15809
3.2261
3.33576
3.43644
3.45858
3.34442
3.07918
2.69265
2.22523
1.7226
1.23863
0.820599
0.530745
0.36477
2.48081
2.77623
3.17915
3.5308
3.78056
3.91998
3.96594
3.93954
3.85993
3.74517
3.60996
3.46922
3.34251
3.25017
3.20445
3.21422
3.26497
3.35884
3.4726
3.557
3.55675
3.42646
3.15976
2.78313
2.33216
1.84548
1.36936
0.944176
0.628071
0.430295
2.0044
2.27946
2.7081
3.09739
3.38557
3.56535
3.64905
3.66144
3.62152
3.54671
3.45241
3.35412
3.27266
3.22711
3.22817
3.28417
3.37485
3.49515
3.61271
3.68114
3.6564
3.50609
3.23375
2.86255
2.42468
1.9532
1.48719
1.06168
0.729077
0.505573
1.56633
1.8106
2.22986
2.63606
2.95659
3.17571
3.29553
3.34555
3.34724
3.31545
3.2664
3.21617
3.18624
3.19347
3.24618
3.35214
3.485
3.63065
3.75043
3.8026
3.7523
3.58032
3.30006
2.93163
2.50463
2.04753
1.593
1.17143
0.830224
0.586619
1.21506
1.40494
1.78944
2.19484
2.53013
2.76968
2.91963
3.00604
3.047
3.05912
3.05821
3.06072
3.08726
3.15129
3.26033
3.41881
3.59406
3.76272
3.88186
3.917
3.84066
3.64769
3.35836
2.9913
2.57376
2.13038
1.68798
1.27332
0.928572
0.671172
0.959808
1.07464
1.39794
1.78266
2.12226
2.37757
2.54947
2.66027
2.736
2.78889
2.83615
2.89367
2.97948
3.10516
3.27333
3.48545
3.70125
3.88919
4.00407
4.02093
3.91836
3.70796
3.40879
3.04271
2.63394
2.20347
1.77345
1.36767
1.02316
0.757146
0.805962
0.834812
1.07095
1.41021
1.7406
2.00593
2.19709
2.33018
2.43077
2.51687
2.60939
2.722
2.86843
3.05967
3.28801
3.55334
3.80609
4.00805
4.11494
4.11185
3.98392
3.75774
3.45112
3.08691
2.68676
2.26847
1.85085
1.45507
1.11343
0.842254
0.746496
0.713499
0.839944
1.09877
1.39789
1.66252
1.86833
2.02167
2.14532
2.25876
2.38751
2.55232
2.75996
3.01878
3.30695
3.62363
3.90811
4.11782
4.21341
4.18819
4.03766
3.79742
3.48576
3.12479
2.73343
2.32685
1.92153
1.53649
1.1992
0.925604
0.768883
0.706206
0.742073
0.888992
1.11962
1.36175
1.57141
1.74046
1.88453
2.02263
2.1815
2.39028
2.65993
2.98619
3.33251
3.69744
4.00722
4.21801
4.2993
4.25058
4.08198
3.82853
3.51371
3.15736
2.77523
2.38017
1.98696
1.61393
1.2808
1.00658
0.861949
0.79206
0.775357
0.822102
0.947595
1.12949
1.32063
1.49412
1.65306
1.81241
1.9989
2.24183
2.57239
2.96466
3.36692
3.77636
4.10444
4.30999
4.37469
4.30248
4.11692
3.85318
3.53694
3.18638
2.81399
2.4302
2.04934
1.68728
1.35835
1.08462
1.03884
0.962553
0.919876
0.896391
0.913508
1.00249
1.13791
1.29415
1.45675
1.63163
1.84195
2.11837
2.50184
2.95331
3.41303
3.86322
4.20298
4.39807
4.4449
4.35042
4.14822
3.87596
3.55952
3.21537
2.85241
2.47975
2.11191
1.75711
1.43213
1.15944
1.30488
1.21642
1.15292
1.08762
1.02422
0.998713
1.04976
1.15667
1.30392
1.4846
1.71486
2.02509
2.45244
2.95852
3.47619
3.96374
4.30994
4.49112
4.51989
4.40516
4.18822
3.90689
3.59008
3.2508
2.89631
2.53604
2.17647
1.82552
1.50303
1.23113
1.66351
1.55278
1.46384
1.36545
1.2474
1.13182
1.07214
1.09906
1.20523
1.37752
1.62353
1.96617
2.42423
2.99462
3.56597
4.08905
4.4389
4.6051
4.61681
4.4841
4.25531
3.96739
3.64689
3.30911
2.96064
2.60408
2.24538
1.89478
1.57251
1.30042
2.1218
1.97746
1.85399
1.71921
1.55652
1.37172
1.21105
1.13397
1.17168
1.32074
1.57282
1.9379
2.43355
3.06984
3.69968
4.26053
4.61441
4.7684
4.76496
4.61599
4.37609
4.08438
3.76434
3.42248
3.0615
2.6933
2.32502
1.96889
1.64309
1.36877
2.69237
2.50442
2.33627
2.15666
1.94713
1.70302
1.45669
1.27525
1.21939
1.31375
1.56095
1.96223
2.52239
3.21407
3.91211
4.51912
4.88195
5.03082
5.01686
4.85294
4.60593
4.30206
3.96393
3.60077
3.21567
2.81912
2.42692
2.0554
1.71971
1.43928
3.39697
3.15773
2.93632
2.70327
2.4403
2.13732
1.81528
1.53566
1.38071
1.40349
1.64461
2.08828
2.72098
3.49181
4.2739
4.94461
5.32884
5.48355
5.47197
5.29577
5.01826
4.67256
4.28636
3.87478
3.445
3.00602
2.57471
2.17018
1.81305
1.51906
4.27418
3.97942
3.69992
3.40891
3.08875
2.72625
2.33356
1.96321
1.70699
1.64777
1.87081
2.37553
3.11612
4.01762
4.93429
5.69737
6.12812
6.30681
6.28187
6.0623
5.7143
5.28443
4.80859
4.3098
3.80131
3.29374
2.80159
2.34829
1.94917
1.62626
5.39688
5.04779
4.71394
4.37078
4.00132
3.58825
3.13532
2.68519
2.33138
2.18838
2.39289
2.98302
3.8944
5.01022
6.14504
7.0533
7.54991
7.7474
7.68341
7.37547
6.89862
6.31743
5.68414
5.03414
4.38942
3.7646
3.17342
2.63343
2.1661
1.78806
6.91321
6.52291
6.15523
5.78729
5.40129
4.97369
4.49696
4.002
3.57948
3.3722
3.57558
4.30604
5.4773
6.93174
8.40873
9.52625
10.1068
10.3066
10.1507
9.67183
8.96525
8.12045
7.21596
6.30624
5.42652
4.59771
3.83292
3.14711
2.55184
2.06915
9.14135
8.75068
8.40395
8.07954
7.75703
7.40647
7.00626
6.57271
6.18863
6.00788
6.28809
7.24694
8.80489
10.736
12.7002
14.078
14.7423
14.8986
14.5499
13.7627
12.6633
11.3756
10.0153
8.66663
7.38366
6.19793
5.1218
4.16514
3.33266
2.64749
12.8022
12.5005
12.2802
12.1285
12.0275
11.9396
11.8271
11.6923
11.5964
11.684
12.2474
13.5749
15.6326
18.1294
20.636
22.2474
22.9431
22.9594
22.2673
20.9902
19.2915
17.3329
15.2735
13.2326
11.2914
9.499
7.86728
6.40209
5.1021
4.0071
19.4015
19.3586
19.3914
19.5998
19.9634
20.4178
20.8899
21.3687
21.8957
22.5948
23.7378
25.6027
28.1921
31.1589
33.9892
35.6111
36.2001
35.9194
34.7687
32.8998
30.5145
27.798
24.9142
22.0048
19.1675
16.4837
13.967
11.6178
9.43865
7.52114
30.8571
31.1305
31.7521
32.5993
33.6105
34.7446
35.8839
37.0178
38.1997
39.5891
41.4266
43.8459
46.7739
49.7628
52.2199
53.2017
53.353
52.6264
51.126
48.9492
46.3107
43.3689
40.2228
36.9377
33.521
30.0771
26.6289
23.1821
19.7487
16.5037
44.8473
45.1618
46.3761
47.9701
49.6381
51.1467
52.4089
53.5356
54.7252
56.2672
58.4047
60.9659
63.5946
65.6742
66.5676
65.7692
64.8967
63.581
62.0453
60.2279
58.3454
56.4984
54.7157
52.9098
50.8959
48.3119
45.3172
41.9538
38.2266
34.3025
47.1869
48.0536
49.7914
51.7058
53.2909
54.3346
54.9372
55.3506
55.8606
56.7777
58.2969
60.242
62.0397
63.0815
62.6483
60.7045
59.1927
57.5871
56.1616
54.8431
53.7748
53.0025
52.5265
52.2418
51.9837
51.5395
50.7553
49.6379
48.2324
46.5599
9.86574
12.8004
14.137
15.0144
15.5196
15.6717
15.5355
15.1798
14.6536
14.0048
13.2522
12.4416
11.576
10.7322
9.93357
9.26657
8.75242
8.62894
9.0205
9.55423
9.57535
8.76634
7.20007
5.23138
3.27859
1.71169
0.795927
0.148667
0.553363
0.593756
5.84164
6.65658
7.07834
7.35881
7.50921
7.51911
7.40273
7.18962
6.90658
6.57379
6.20966
5.82519
5.44202
5.07124
4.74923
4.48486
4.32281
4.38422
4.78665
5.30754
5.54909
5.30972
4.63296
3.68557
2.6182
1.58762
0.766446
0.31319
0.26991
0.260273
5.34458
5.85088
6.17308
6.38001
6.47129
6.45931
6.35011
6.16172
5.91249
5.61799
5.29476
4.95396
4.61793
4.30292
4.03809
3.83323
3.71748
3.79748
4.1617
4.63988
4.91174
4.8012
4.34137
3.59864
2.69916
1.78834
0.989448
0.466743
0.300193
0.271476
5.04966
5.43929
5.76924
6.00387
6.1236
6.14097
6.06176
5.90113
5.6765
5.40269
5.09699
4.77147
4.4525
4.16072
3.9246
3.75167
3.6664
3.77119
4.11609
4.53866
4.78764
4.71472
4.31352
3.66138
2.85505
1.99845
1.20977
0.618239
0.35296
0.271143
4.72458
5.03158
5.38917
5.68249
5.86126
5.9271
5.89077
5.76452
5.5686
5.31905
5.03382
4.72655
4.42679
4.16346
3.9546
3.81618
3.77101
3.91318
4.24873
4.6209
4.82549
4.73741
4.35741
3.75574
3.00461
2.18748
1.41139
0.776862
0.427246
0.293331
4.32119
4.57109
4.95052
5.30619
5.55559
5.67987
5.69428
5.61
5.4499
5.23338
4.97695
4.6984
4.42969
4.19578
4.02469
3.93022
3.93827
4.12644
4.46039
4.78524
4.93694
4.82022
4.43477
3.85372
3.13749
2.35315
1.59202
0.936947
0.524256
0.338723
3.86105
4.05128
4.45135
4.86102
5.17592
5.36106
5.43028
5.39536
5.27926
5.10377
4.88672
4.64455
4.4186
4.22808
4.10522
4.06678
4.13926
4.37989
4.71494
4.99274
5.08615
4.92534
4.52361
3.9482
3.25435
2.49745
1.75238
1.09042
0.635797
0.403221
3.34608
3.48622
3.89714
4.34887
4.72039
4.96441
5.08992
5.10837
5.04433
4.919
4.75147
4.55867
4.38506
4.25168
4.18806
4.21767
4.36491
4.66028
4.99407
5.22287
5.25346
5.03947
4.61433
4.03635
3.35677
2.62258
1.89419
1.23459
0.754085
0.481414
2.75958
2.87603
3.293
3.77806
4.20083
4.49769
4.67987
4.75248
4.74682
4.68015
4.57175
4.44092
4.33411
4.26782
4.27336
4.38194
4.61251
4.95962
5.28556
5.46227
5.42487
5.15419
4.70183
4.11682
3.44652
2.73112
2.02001
1.36879
0.873534
0.569491
2.23793
2.31969
2.7135
3.19814
3.64074
3.97756
4.21361
4.34217
4.39567
4.39458
4.35344
4.29772
4.27012
4.28068
4.36552
4.56224
4.88014
5.2713
5.57923
5.69953
5.5902
5.26442
4.78322
4.1893
3.52514
2.82604
2.1324
1.4933
0.990813
0.663224
1.80074
1.83252
2.17825
2.64079
3.08627
3.44725
3.71647
3.89348
4.00758
4.07341
4.10833
4.13928
4.19916
4.29706
4.46931
4.76204
5.16595
5.58842
5.86594
5.92444
5.74184
5.36754
4.85716
4.25429
3.59513
2.91048
2.2339
1.60888
1.10414
0.759079
1.458
1.43013
1.70567
2.12381
2.55515
2.92647
3.22111
3.43915
3.60301
3.73529
3.85035
3.97487
4.12986
4.32473
4.59082
4.98491
5.46742
5.90344
6.13812
6.12924
5.87557
5.45692
4.92243
4.31283
3.65908
2.9874
2.32734
1.7177
1.21274
0.855395
1.2147
1.13012
1.31935
1.66876
2.06635
2.43414
2.74494
2.99713
3.20743
3.39751
3.59375
3.81421
4.07406
4.37152
4.73658
5.23385
5.78083
6.20938
6.39096
6.30951
5.99193
5.5338
4.98043
4.36731
3.71953
3.06035
2.41747
1.81988
1.31585
0.950359
1.06154
0.944565
1.04848
1.30629
1.64547
1.99133
2.30701
2.58402
2.83587
3.08178
3.35008
3.66914
4.04135
4.44539
4.91375
5.51151
6.10237
6.50182
6.62225
6.46747
6.09671
5.60364
5.03603
4.42147
3.78085
3.13718
2.50589
1.91448
1.41265
1.04238
1.01677
0.882765
0.914436
1.07185
1.32648
1.62489
1.92714
2.21739
2.50312
2.80018
3.13857
3.55304
4.02896
4.55478
5.13064
5.82117
6.43054
6.78212
6.83688
6.6138
6.19971
5.67766
5.0977
4.48334
3.85561
3.2191
2.59163
2.00278
1.50306
1.13031
1.07082
0.936566
0.910745
0.9871
1.14449
1.366
1.62822
1.91335
2.22105
2.56262
2.97094
3.47594
4.06329
4.71178
5.39805
6.16866
6.76955
7.06111
7.04905
6.76732
6.31922
5.77488
5.18425
4.57617
3.94689
3.30641
2.6736
2.08538
1.58733
1.2136
1.23693
1.104
1.04681
1.04673
1.10664
1.24136
1.433
1.68885
2.00167
2.37987
2.85894
3.43599
4.1543
4.93079
5.73118
6.56596
7.13453
7.36251
7.28551
6.95869
6.48458
5.93583
5.34245
4.70933
4.05828
3.3976
2.75433
2.16378
1.66638
1.29227
1.54231
1.39154
1.30198
1.24645
1.22101
1.24394
1.35602
1.55926
1.85839
2.26581
2.79823
3.45304
4.31446
5.2331
6.15375
7.03684
7.55771
7.72527
7.59409
7.23537
6.74957
6.1923
5.57146
4.88842
4.19065
3.49862
2.83781
2.24083
1.74206
1.36723
1.99466
1.80694
1.67564
1.56747
1.4716
1.40325
1.40483
1.5245
1.79431
2.21196
2.79178
3.58746
4.57413
5.65369
6.70547
7.6259
8.09681
8.21739
8.05298
7.68735
7.16762
6.57472
5.88361
5.13104
4.36078
3.62049
2.9316
2.32175
1.81795
1.44077
2.60782
2.36516
2.17981
2.01505
1.85405
1.70333
1.60636
1.62473
1.83347
2.25998
2.93757
3.85736
4.99394
6.25276
7.45621
8.41397
8.85393
8.95845
8.8065
8.38703
7.80392
7.10983
6.31459
5.45999
4.5994
3.78567
3.05133
2.4175
1.90157
1.51775
3.40724
3.09534
2.84566
2.61986
2.39598
2.17103
1.98429
1.90719
2.04791
2.49024
3.26128
4.33731
5.67307
7.13567
8.53337
9.54741
10.0183
10.1566
9.95558
9.4184
8.73437
7.8785
6.92716
5.93417
4.95764
4.04282
3.23146
2.55276
2.01032
1.61033
4.44091
4.05274
3.7358
3.45096
3.17127
2.88385
2.62057
2.46202
2.53156
2.99069
3.88099
5.16895
6.77567
8.52053
10.1755
11.3011
11.8273
11.9546
11.6412
10.9945
10.0994
9.01051
7.83356
6.64659
5.50606
4.46302
3.54985
2.78889
2.18903
1.75142
5.80295
5.34448
4.97208
4.64571
4.33255
4.00923
3.69837
3.48533
3.50358
4.00038
5.05383
6.62109
8.5978
10.7326
12.7439
14.0029
14.565
14.6429
14.1709
13.33
12.1371
10.7254
9.23292
7.76666
6.39389
5.15952
4.08653
3.20183
2.50254
1.98439
7.68511
7.18564
6.79501
6.47151
6.17591
5.87497
5.58135
5.3776
5.41486
6.0019
7.27893
9.21711
11.6622
14.2991
16.7637
18.1289
18.6848
18.6519
17.9929
16.8232
15.2342
13.3926
11.4781
9.61908
7.90532
6.37919
5.05964
3.96238
3.08238
2.41648
10.4867
10.0129
9.67833
9.43834
9.25212
9.08253
8.93214
8.87223
9.08457
9.87405
11.4496
13.833
16.8286
20.0098
22.9709
24.3143
24.7839
24.5442
23.6062
22.0435
19.9797
17.6119
15.1731
12.7985
10.6045
8.64137
6.92542
5.46664
4.26176
3.32546
14.9838
14.6714
14.4956
14.4441
14.499
14.6216
14.7951
15.0932
15.6964
16.862
18.819
21.6633
25.1818
28.8148
32.1296
33.1449
33.3578
32.7774
31.5001
29.5596
27.0662
24.1956
21.2377
18.2976
15.521
12.9648
10.6542
8.60631
6.82998
5.38533
22.2449
22.1826
22.3447
22.7084
23.1812
23.7355
24.3715
25.1686
26.3071
27.9695
30.3428
33.56
37.4031
41.1511
44.2828
44.3024
43.6355
42.3433
40.7421
38.6975
36.3115
33.6026
30.5316
27.3028
24.1151
20.9905
17.9794
15.127
12.4719
10.1656
32.8629
32.9804
33.5585
34.3983
35.3652
36.4165
37.5251
38.7769
40.2772
42.2866
44.9372
48.2709
52.0214
55.1821
56.8786
54.5324
52.6919
50.6653
48.8885
47.0295
45.1921
43.3347
41.4224
39.3511
36.7899
33.8066
30.5684
27.1557
23.6473
20.3197
43.2868
43.7669
44.8691
46.1839
47.4598
48.6029
49.6291
50.7114
52.0807
54.0115
56.5932
59.6033
62.7637
64.386
63.8213
59.1888
56.2542
53.64
51.7764
50.3127
49.3215
48.7021
48.3445
48.0502
47.5066
46.3846
44.6366
42.2989
39.4232
36.1789
43.542
44.7539
46.4739
48.232
49.6877
50.7259
51.456
52.1436
53.0801
54.5835
56.6802
59.1223
61.1539
61.4944
59.0345
53.271
49.8347
47.0288
45.1971
43.9583
43.4524
43.5798
44.2344
45.1462
46.0432
46.6229
46.6595
46.2098
45.359
44.2196
13.4185
16.9916
18.4467
19.237
19.6871
19.7598
19.5106
19.0147
18.3229
17.485
16.509
15.4438
14.2832
13.1324
12.0282
11.1091
10.4932
10.8753
12.6268
14.6454
15.3496
14.2628
11.7558
8.55162
5.32109
2.64649
0.7445
0.140775
0.551068
0.590518
7.70534
8.55389
8.92086
9.10947
9.21364
9.18772
9.02988
8.76543
8.42068
8.0128
7.56188
7.07103
6.57255
6.06847
5.62291
5.23209
5.02573
5.34117
6.45424
7.7509
8.37562
8.0743
7.06842
5.6604
4.07375
2.45092
1.03836