/*--------------------------------*- C++ -*----------------------------------*\
| =========                 |                                                 |
| \\      /  F ield         | OpenFOAM: The Open Source CFD Toolbox           |
|  \\    /   O peration     | Version:  5.0                                   |
|   \\  /    A nd           | Web:      www.OpenFOAM.org                      |
|    \\/     M anipulation  |                                                 |
\*---------------------------------------------------------------------------*/
FoamFile
{
    version     2.0;
    format      ascii;
    class       volScalarField;
    location    "1300/air";
    object      k;
}
// * * * * * * * * * * * * * * * * * * * * * * * * * * * * * * * * * * * * * //

dimensions      [0 2 -2 0 0 0 0];

internalField   nonuniform List<scalar> 
243000
(
0.059419
0.0691596
0.072979
0.0746396
0.0745181
0.0731538
0.0709353
0.068155
0.0650142
0.0616637
0.0581664
0.0546062
0.050998
0.0474964
0.044216
0.0414152
0.0392385
0.0382671
0.0391354
0.0367683
0.0354413
0.0339267
0.0318689
0.0309068
0.0280294
0.0265906
0.0243015
0.0219953
0.0199106
0.0190263
0.0873824
0.101348
0.105896
0.107128
0.106182
0.103783
0.100426
0.0964779
0.092169
0.0876611
0.0830284
0.0783941
0.0738197
0.0695559
0.0657566
0.06276
0.0606629
0.0596879
0.0590443
0.0587764
0.057795
0.0559981
0.0531507
0.0494287
0.044843
0.0401231
0.0351754
0.0301216
0.0250837
0.0224534
0.0993085
0.114827
0.120826
0.122921
0.122321
0.119976
0.116456
0.112189
0.107451
0.102453
0.0973073
0.0921995
0.0872289
0.0827188
0.0788601
0.0760593
0.0743675
0.0738177
0.073739
0.0734999
0.0724768
0.0703597
0.0669335
0.0622856
0.0567208
0.0506332
0.0442855
0.0376667
0.0311363
0.0261049
0.101625
0.118726
0.127236
0.13082
0.131348
0.129775
0.126742
0.122735
0.118091
0.113076
0.107851
0.10267
0.0976757
0.0932702
0.089686
0.0873955
0.086385
0.0865028
0.0868888
0.0868151
0.0856701
0.0831905
0.0792251
0.0738775
0.0674619
0.0603431
0.052814
0.0448969
0.0373016
0.0309204
0.0982269
0.115934
0.126675
0.132605
0.134925
0.134601
0.132487
0.12914
0.124965
0.120282
0.11531
0.110364
0.105646
0.101634
0.098599
0.0970711
0.0969385
0.0978323
0.0987126
0.0987954
0.0974879
0.0946312
0.0901685
0.0842379
0.0771498
0.0692461
0.0608266
0.0519201
0.0433748
0.0360271
0.090756
0.109092
0.121977
0.129996
0.134198
0.135462
0.134562
0.132152
0.128741
0.12465
0.120187
0.115719
0.111515
0.108127
0.105871
0.105316
0.106185
0.107919
0.109305
0.109525
0.108044
0.104818
0.0999016
0.0934783
0.0858567
0.0773616
0.0682853
0.0586474
0.0492571
0.0411134
0.0810304
0.0995009
0.114017
0.123968
0.130101
0.133097
0.13366
0.132461
0.129951
0.12662
0.12289
0.119093
0.115591
0.11302
0.11173
0.112316
0.114274
0.116876
0.118762
0.119105
0.117454
0.113881
0.108557
0.101714
0.0936694
0.0847305
0.0751732
0.0650053
0.0548928
0.0460715
0.0711788
0.0894614
0.104431
0.115578
0.123436
0.128153
0.130273
0.130421
0.129054
0.126723
0.123779
0.120783
0.118137
0.11654
0.116373
0.118228
0.121332
0.124805
0.127173
0.127632
0.125825
0.12194
0.116252
0.109054
0.100673
0.0914048
0.0814998
0.0709549
0.0602843
0.0508699
0.0623913
0.0793183
0.0948003
0.10674
0.115397
0.121368
0.124963
0.12649
0.126383
0.125136
0.123161
0.121066
0.119379
0.118876
0.119972
0.123182
0.12747
0.131795
0.134623
0.135196
0.133254
0.129096
0.123093
0.115597
0.106948
0.0974383
0.087287
0.0765039
0.065361
0.0554659
0.0567154
0.0694049
0.0848812
0.0976741
0.107289
0.1141
0.118496
0.121191
0.122299
0.122205
0.12128
0.120176
0.11952
0.120211
0.122659
0.127282
0.132778
0.137923
0.141186
0.141873
0.139824
0.135438
0.129169
0.121427
0.112571
0.102886
0.0925721
0.0816017
0.0701245
0.0598402
0.0564375
0.0616029
0.0749451
0.0881817
0.0988237
0.106652
0.111986
0.115402
0.117298
0.118241
0.118378
0.118311
0.118739
0.120688
0.124555
0.130623
0.13732
0.143251
0.146924
0.14773
0.145606
0.141038
0.134557
0.126621
0.117608
0.107801
0.0973921
0.0862597
0.0745591
0.0640099
0.0643589
0.0598458
0.0667583
0.0785866
0.0898967
0.0988201
0.105237
0.109537
0.112165
0.113678
0.114725
0.115659
0.117184
0.120435
0.125759
0.133279
0.141145
0.147835
0.151891
0.152824
0.150661
0.145961
0.139322
0.131244
0.12212
0.112248
0.101736
0.090489
0.0786782
0.0679218
0.0759065
0.0683818
0.0645896
0.0707731
0.0809771
0.090603
0.098131
0.103465
0.106961
0.109154
0.110679
0.112425
0.114998
0.119565
0.12636
0.13531
0.144298
0.151711
0.156128
0.157201
0.155039
0.150261
0.143519
0.135348
0.126158
0.116239
0.105652
0.0943238
0.082489
0.0715805
0.088209
0.0816055
0.0722551
0.0688013
0.0739624
0.0825676
0.0907572
0.097131
0.101605
0.104587
0.106698
0.108855
0.112328
0.118166
0.126409
0.136754
0.14681
0.154907
0.159673
0.160904
0.158784
0.153982
0.147193
0.138979
0.129781
0.119824
0.109182
0.0977872
0.0860048
0.0749985
0.101109
0.0952832
0.0869998
0.0764799
0.0725387
0.0765096
0.0837173
0.0906656
0.0960801
0.0999277
0.10272
0.105352
0.109347
0.116336
0.125975
0.137642
0.148699
0.157439
0.16256
0.163966
0.161933
0.157161
0.150379
0.142185
0.133003
0.12304
0.112359
0.100909
0.0892427
0.0781871
0.114608
0.109178
0.101537
0.0906565
0.0796301
0.075411
0.0785112
0.0845968
0.0905172
0.0951785
0.0987095
0.101916
0.106261
0.114172
0.125093
0.137983
0.149974
0.159321
0.164809
0.166416
0.164513
0.159829
0.153123
0.145012
0.135869
0.125923
0.115218
0.103723
0.0922232
0.0811591
0.128728
0.123327
0.115928
0.105979
0.0925762
0.0813186
0.0773311
0.0800393
0.0853166
0.0904455
0.0946767
0.0985132
0.103328
0.111773
0.1238
0.13782
0.150618
0.160551
0.166431
0.168276
0.16656
0.162028
0.155465
0.147468
0.13841
0.128504
0.117794
0.106266
0.0949718
0.0839311
0.143431
0.137772
0.130261
0.120455
0.107239
0.092687
0.081757
0.0785248
0.0812379
0.086001
0.0906949
0.0951457
0.100506
0.109222
0.122136
0.137124
0.150719
0.161139
0.167431
0.169575
0.168101
0.163788
0.157429
0.149589
0.140655
0.13082
0.12013
0.108709
0.0975566
0.0865368
0.158674
0.152536
0.144669
0.134694
0.121939
0.106533
0.0911327
0.0812523
0.079283
0.0823155
0.086929
0.0918568
0.097774
0.10672
0.120151
0.135922
0.150218
0.161185
0.167833
0.170334
0.169163
0.165147
0.159036
0.15141
0.142645
0.132915
0.122275
0.111063
0.100024
0.0890145
0.174385
0.167602
0.159205
0.14885
0.13626
0.120796
0.103342
0.0881344
0.0803081
0.0799936
0.0836431
0.0887376
0.0951386
0.104371
0.117907
0.134237
0.149107
0.160604
0.167718
0.170575
0.169779
0.16611
0.160316
0.15297
0.144428
0.134849
0.124284
0.113327
0.102399
0.0913931
0.190481
0.182926
0.173876
0.163018
0.150418
0.134912
0.116611
0.098007
0.0845491
0.0796105
0.0811808
0.0859236
0.0926335
0.102139
0.115487
0.1321
0.147418
0.159383
0.166967
0.170299
0.169933
0.166702
0.161302
0.154305
0.146049
0.136677
0.126228
0.115531
0.104711
0.0937042
0.206926
0.198494
0.188709
0.177331
0.164549
0.148831
0.13006
0.109496
0.0915317
0.0814773
0.0798984
0.0835976
0.090324
0.10004
0.113269
0.129603
0.145161
0.157541
0.165615
0.169491
0.169637
0.166913
0.162007
0.155438
0.147544
0.138452
0.128203
0.117735
0.107006
0.0959786
0.223767
0.214466
0.204007
0.192794
0.179215
0.162847
0.143482
0.121642
0.100447
0.0855619
0.080082
0.0819965
0.0883461
0.0981213
0.111234
0.127001
0.142407
0.15507
0.163611
0.168067
0.168816
0.166669
0.162366
0.156338
0.148915
0.140203
0.130271
0.120008
0.109354
0.0982798
0.241655
0.232132
0.221532
0.208993
0.194255
0.176992
0.156849
0.134033
0.110596
0.091624
0.0819461
0.0813692
0.0868894
0.0965094
0.109472
0.124791
0.13982
0.152338
0.161125
0.16607
0.167439
0.165977
0.162294
0.156907
0.150087
0.141895
0.132441
0.122411
0.11182
0.100667
0.259723
0.250379
0.239013
0.225163
0.20927
0.191146
0.170336
0.14679
0.121815
0.0996
0.08579
0.0821825
0.0863397
0.095583
0.108356
0.123322
0.138003
0.150392
0.159398
0.164807
0.166755
0.16584
0.162656
0.157728
0.151365
0.143709
0.134833
0.125087
0.114552
0.103259
0.274577
0.265072
0.253519
0.239543
0.223722
0.205564
0.184649
0.160829
0.134938
0.110298
0.0926955
0.0856815
0.0879604
0.0965861
0.109154
0.123843
0.138259
0.150541
0.15965
0.165312
0.167665
0.16724
0.164483
0.159918
0.153908
0.14663
0.13815
0.128637
0.118084
0.106495
0.287978
0.278401
0.267562
0.254831
0.239932
0.222532
0.202269
0.178927
0.152992
0.126989
0.10635
0.0958904
0.0958098
0.103647
0.11601
0.130402
0.144367
0.156266
0.165141
0.170748
0.173189
0.172917
0.170301
0.165848
0.159929
0.152747
0.144342
0.13481
0.124033
0.11185
0.308637
0.299215
0.288855
0.277214
0.263926
0.248534
0.23052
0.209502
0.18563
0.160582
0.138984
0.126322
0.124224
0.130996
0.142944
0.156511
0.169113
0.179682
0.187358
0.191911
0.193493
0.192476
0.189199
0.184125
0.177603
0.169802
0.160811
0.150612
0.138928
0.125242
0.350409
0.342565
0.334917
0.327242
0.319077
0.30969
0.298259
0.284255
0.267574
0.248817
0.231605
0.220894
0.218583
0.223962
0.233631
0.244113
0.25297
0.259833
0.264089
0.265679
0.264772
0.261614
0.256536
0.249817
0.241681
0.231891
0.221043
0.209093
0.195448
0.179372
0.509434
0.508782
0.510761
0.512398
0.513156
0.512538
0.510086
0.505764
0.49945
0.489583
0.480232
0.47377
0.470765
0.47122
0.47346
0.477018
0.479664
0.482102
0.48379
0.485036
0.48567
0.485825
0.485319
0.483999
0.481419
0.474615
0.467725
0.460315
0.449916
0.437021
0.0879042
0.105312
0.113024
0.116559
0.117102
0.115562
0.11258
0.108632
0.104026
0.0990225
0.0937611
0.0884626
0.0832078
0.0783257
0.0739829
0.0705571
0.0680562
0.0664637
0.0653923
0.0642626
0.0621177
0.0582796
0.0524961
0.0451105
0.0368989
0.028753
0.024129
0.0226464
0.0211188
0.0200352
0.134971
0.159192
0.167225
0.167928
0.164567
0.158842
0.151882
0.144339
0.136594
0.12894
0.121502
0.114524
0.108053
0.102522
0.0980445
0.09503
0.0931198
0.0922405
0.0918174
0.0911814
0.0893021
0.085312
0.0786006
0.0693886
0.0585671
0.0471036
0.0365888
0.0301723
0.031408
0.0281511
0.15684
0.185139
0.197378
0.200971
0.199218
0.194301
0.187489
0.179605
0.171183
0.162664
0.154298
0.146475
0.139334
0.133493
0.129102
0.126642
0.12544
0.125116
0.124785
0.123717
0.120929
0.115603
0.107136
0.0956552
0.0820341
0.0673295
0.0530156
0.0408875
0.0360798
0.0358561
0.160568
0.191292
0.208858
0.216185
0.217433
0.214689
0.209374
0.202473
0.19465
0.186461
0.178294
0.170679
0.163872
0.158636
0.155172
0.153955
0.153954
0.15441
0.154208
0.152613
0.148792
0.142131
0.132106
0.118834
0.103125
0.0859983
0.0688566
0.0529738
0.0428181
0.0381705
0.154667
0.184957
0.20623
0.21856
0.223969
0.224085
0.220913
0.215653
0.209124
0.20199
0.194766
0.188105
0.182391
0.178507
0.176663
0.177265
0.178794
0.180187
0.180196
0.1781
0.173269
0.165359
0.154015
0.139364
0.122147
0.103307
0.0841768
0.065764
0.0517705
0.0430184
0.141327
0.171919
0.196785
0.212813
0.221786
0.225114
0.224426
0.221185
0.216401
0.210811
0.205067
0.199926
0.195901
0.193975
0.194347
0.197208
0.200484
0.202911
0.203178
0.200612
0.194834
0.185777
0.173303
0.157581
0.139285
0.119278
0.0987889
0.0786787
0.0620562
0.0500842
0.121465
0.152412
0.180632
0.200531
0.213042
0.219554
0.221597
0.220736
0.21786
0.21415
0.210304
0.207126
0.205266
0.205812
0.208935
0.214368
0.219513
0.22301
0.223557
0.220554
0.2139
0.203805
0.190351
0.17378
0.154726
0.133965
0.112599
0.0913714
0.0729762
0.0585253
0.100491
0.129487
0.15954
0.183104
0.199172
0.208797
0.213618
0.215174
0.214617
0.213068
0.21136
0.210488
0.211193
0.214708
0.220965
0.229193
0.236252
0.24081
0.241639
0.238245
0.230793
0.219771
0.205466
0.188214
0.168632
0.147427
0.125554
0.103636
0.0840659
0.0677265
0.0828134
0.107437
0.137031
0.163193
0.181992
0.194233
0.201738
0.205621
0.20743
0.208292
0.209039
0.210694
0.214329
0.22121
0.230834
0.242015
0.250995
0.256559
0.257664
0.253924
0.245763
0.233927
0.218892
0.201098
0.181164
0.159746
0.137637
0.115356
0.0950491
0.0772824
0.0694346
0.0879138
0.114998
0.14208
0.163229
0.177837
0.18734
0.192875
0.197019
0.200516
0.203919
0.208359
0.2152
0.225723
0.238913
0.253078
0.263976
0.270455
0.271818
0.26778
0.259007
0.246476
0.230835
0.212621
0.192477
0.171021
0.148877
0.126516
0.105815
0.0869312
0.0629663
0.0726881
0.0948263
0.12077
0.143364
0.160217
0.171792
0.178885
0.184595
0.190374
0.196589
0.203987
0.214226
0.228656
0.245508
0.262608
0.275348
0.282647
0.284248
0.279965
0.270686
0.257583
0.241464
0.222953
0.202723
0.181353
0.159364
0.137039
0.116115
0.0964554
0.0649452
0.0650829
0.0787585
0.100817
0.123257
0.141805
0.155468
0.164392
0.1718
0.179159
0.187624
0.198056
0.211902
0.230404
0.250864
0.27077
0.285227
0.293256
0.295073
0.290609
0.280933
0.267387
0.250925
0.232246
0.21205
0.190874
0.16907
0.146888
0.1259
0.105734
0.0728822
0.0678024
0.0707527
0.084896
0.104694
0.123462
0.138758
0.149687
0.158993
0.167978
0.17806
0.191038
0.20856
0.231218
0.255155
0.27768
0.293703
0.302383
0.3044
0.299821
0.289862
0.276013
0.259348
0.240637
0.220588
0.199671
0.178046
0.156112
0.135159
0.114722
0.086282
0.0790626
0.0748754
0.0780178
0.0905835
0.107036
0.12256
0.135249
0.146342
0.156947
0.168672
0.183503
0.204535
0.230993
0.258477
0.283414
0.30083
0.310133
0.312329
0.307706
0.297571
0.283562
0.266845
0.248243
0.22846
0.207764
0.186393
0.164752
0.143932
0.123426
0.105531
0.0969446
0.0895388
0.0839978
0.0855482
0.0953353
0.108669
0.121724
0.13406
0.146171
0.159518
0.176251
0.200132
0.23023
0.26093
0.28803
0.306673
0.316582
0.318956
0.314364
0.304155
0.290122
0.273543
0.255189
0.235711
0.215276
0.194199
0.172919
0.152253
0.131813
0.131134
0.121432
0.111838
0.101414
0.0931852
0.0922712
0.0994139
0.11036
0.122691
0.135853
0.150697
0.169498
0.195611
0.229034
0.262583
0.291577
0.311308
0.321811
0.324389
0.319904
0.309688
0.295899
0.279568
0.261588
0.242418
0.222296
0.201559
0.180788
0.160192
0.139785
0.163232
0.152334
0.14047
0.126859
0.112115
0.100735
0.0977195
0.103126
0.113328
0.126516
0.142522
0.16329
0.19146
0.22752
0.263518
0.294119
0.314833
0.325932
0.32875
0.324449
0.314554
0.301015
0.285032
0.267471
0.248683
0.22893
0.208573
0.188357
0.167798
0.147381
0.199324
0.187606
0.173895
0.157822
0.138961
0.119749
0.105946
0.10205
0.107481
0.118957
0.135421
0.157824
0.187985
0.225795
0.263746
0.295761
0.317398
0.32911
0.332316
0.328342
0.318805
0.305633
0.290091
0.272976
0.254637
0.235301
0.21548
0.195617
0.175106
0.154635
0.238962
0.22615
0.21107
0.192935
0.171074
0.146442
0.123533
0.109073
0.106379
0.114178
0.129902
0.153401
0.185069
0.223985
0.263403
0.296708
0.319266
0.331687
0.335338
0.331831
0.322744
0.310023
0.294993
0.278341
0.260464
0.241631
0.222405
0.202722
0.182205
0.161618
0.281394
0.267523
0.251265
0.231267
0.20685
0.178192
0.148377
0.124046
0.111657
0.112885
0.126571
0.150171
0.182852
0.222547
0.26296
0.297405
0.320914
0.334096
0.338323
0.335457
0.32689
0.314651
0.30016
0.284049
0.266698
0.248441
0.22962
0.209933
0.189277
0.168469
0.325844
0.311103
0.293859
0.272188
0.245446
0.213468
0.178368
0.145828
0.123583
0.116565
0.125575
0.148388
0.181597
0.221892
0.263251
0.29874
0.323258
0.337256
0.342202
0.340163
0.332192
0.320426
0.306516
0.290923
0.274048
0.25626
0.237663
0.217658
0.196625
0.175436
0.37164
0.356379
0.338388
0.315311
0.286519
0.251722
0.212428
0.173299
0.142043
0.126106
0.128838
0.148855
0.182017
0.223588
0.266064
0.302546
0.328161
0.342994
0.34889
0.347837
0.340592
0.329252
0.31549
0.300057
0.28333
0.265664
0.246956
0.226549
0.204751
0.182877
0.418414
0.403206
0.384799
0.360859
0.330579
0.293596
0.250998
0.206606
0.167537
0.142643
0.13772
0.154419
0.1871
0.229496
0.27348
0.311853
0.339064
0.3548
0.361589
0.36128
0.354364
0.343047
0.32901
0.313207
0.296118
0.277958
0.258519
0.237336
0.2146
0.191547
0.466504
0.452113
0.434074
0.4102
0.379516
0.341503
0.296813
0.24855
0.203048
0.169606
0.156537
0.16806
0.200052
0.243893
0.290386
0.331505
0.360583
0.37751
0.385212
0.385306
0.378098
0.36602
0.350763
0.333537
0.31496
0.295378
0.274454
0.251666
0.227231
0.202338
0.520501
0.506703
0.489651
0.467451
0.43829
0.401367
0.356937
0.307287
0.257734
0.217263
0.196315
0.201051
0.231847
0.278252
0.328708
0.373463
0.404447
0.422729
0.430682
0.429789
0.420545
0.405722
0.387372
0.366961
0.345293
0.322738
0.299035
0.273453
0.245823
0.217566
0.589434
0.578048
0.56394
0.545257
0.520123
0.487716
0.447736
0.401644
0.353354
0.310643
0.284745
0.283227
0.311847
0.360923
0.416265
0.464181
0.495692
0.513724
0.519944
0.515273
0.500997
0.480258
0.455638
0.428856
0.400967
0.372494
0.343222
0.312428
0.279009
0.244147
0.694762
0.688458
0.680075
0.668269
0.651954
0.629866
0.600877
0.565982
0.527852
0.492423
0.469514
0.466928
0.493683
0.542503
0.599571
0.646443
0.675501
0.689954
0.691163
0.679009
0.656106
0.625864
0.591231
0.554068
0.515588
0.476526
0.436831
0.395534
0.35109
0.303521
0.873946
0.874741
0.87547
0.874435
0.871292
0.864129
0.850685
0.831976
0.809913
0.78919
0.777081
0.779943
0.805549
0.849275
0.898692
0.93787
0.961035
0.970311
0.965552
0.946952
0.91737
0.880017
0.837739
0.79197
0.743416
0.692709
0.640028
0.583739
0.521874
0.454462
1.09404
1.09882
1.1128
1.12755
1.1414
1.14863
1.14651
1.1377
1.12471
1.11373
1.10987
1.11761
1.13869
1.17027
1.20159
1.22527
1.2392
1.24392
1.23846
1.22306
1.19967
1.17062
1.13788
1.10199
1.06238
1.01773
0.968031
0.911448
0.846039
0.772469
1.15728
1.16438
1.18667
1.20858
1.222
1.2252
1.22002
1.20999
1.19905
1.19067
1.19068
1.19885
1.2126
1.22922
1.23937
1.24417
1.24846
1.24837
1.24495
1.23794
1.22831
1.21771
1.20714
1.19702
1.18679
1.17367
1.15681
1.13554
1.10912
1.07767
0.118413
0.139683
0.147603
0.15154
0.152075
0.150073
0.146299
0.141349
0.135614
0.129437
0.122978
0.116518
0.110104
0.104163
0.0988444
0.0946165
0.0914237
0.0897365
0.0896413
0.0899785
0.0885028
0.0835485
0.0745548
0.062208
0.048058
0.0340431
0.0238864
0.0226743
0.0211846
0.021896
0.185652
0.217239
0.228666
0.230259
0.226118
0.218886
0.210055
0.20047
0.190601
0.180795
0.17115
0.161933
0.153092
0.145193
0.138303
0.132938
0.128754
0.127154
0.128542
0.131427
0.132547
0.12911
0.119316
0.103563
0.0838198
0.062744
0.043371
0.0326554
0.0321629
0.0302089
0.220644
0.256875
0.274717
0.280574
0.27886
0.27278
0.264111
0.253928
0.24292
0.231653
0.220406
0.209614
0.199374
0.190432
0.182907
0.177278
0.172873
0.17116
0.172408
0.175042
0.175699
0.171325
0.159716
0.141018
0.117008
0.0904353
0.064866
0.045642
0.0387766
0.039405
0.234978
0.273655
0.296137
0.306285
0.308582
0.305195
0.298294
0.289124
0.278571
0.267392
0.256061
0.245176
0.235019
0.226435
0.219561
0.214726
0.210888
0.20931
0.210091
0.211777
0.211227
0.205556
0.192522
0.171939
0.145357
0.115314
0.0854856
0.0603321
0.0460081
0.0418571
0.234665
0.270632
0.297345
0.314567
0.322253
0.322288
0.31802
0.310768
0.30163
0.291559
0.281212
0.271336
0.26239
0.255277
0.250035
0.246771
0.244021
0.242773
0.242986
0.243428
0.241309
0.234138
0.219853
0.19806
0.17001
0.137917
0.1053
0.0760151
0.0558756
0.0466937
0.227327
0.259463
0.288788
0.310077
0.3224
0.327267
0.326325
0.321637
0.314608
0.306445
0.297947
0.290006
0.283245
0.278558
0.275759
0.274649
0.273331
0.272549
0.272153
0.271189
0.267342
0.258558
0.243091
0.220459
0.191631
0.15847
0.12416
0.092076
0.0677421
0.0541418
0.212793
0.241345
0.272154
0.297042
0.313695
0.322569
0.325227
0.323556
0.319155
0.313579
0.307689
0.30251
0.298812
0.297417
0.297773
0.299261
0.299572
0.299329
0.298323
0.295881
0.29023
0.279782
0.263162
0.239894
0.210714
0.177153
0.141957
0.108095
0.0807768
0.0635741
0.187444
0.213675
0.247163
0.276031
0.29683
0.309792
0.316127
0.317862
0.316717
0.314237
0.311532
0.309858
0.31003
0.312728
0.316885
0.321264
0.323247
0.323583
0.321969
0.318044
0.310563
0.298453
0.280699
0.256905
0.227636
0.194112
0.15869
0.123907
0.0944542
0.0743038
0.159033
0.182667
0.216686
0.248397
0.273199
0.290394
0.300469
0.3058
0.308226
0.30936
0.310494
0.312903
0.317778
0.325252
0.333642
0.341106
0.344754
0.345635
0.343427
0.338035
0.328751
0.315016
0.296167
0.271914
0.242718
0.20953
0.174287
0.139045
0.108339
0.0858019
0.133174
0.152185
0.184789
0.218076
0.245667
0.265966
0.279629
0.288702
0.294897
0.299968
0.3054
0.312389
0.322772
0.335589
0.348449
0.359121
0.364368
0.365743
0.362933
0.356105
0.345088
0.329807
0.309927
0.28527
0.256226
0.223649
0.188678
0.15343
0.121987
0.0976553
0.112444
0.124614
0.153341
0.186533
0.21605
0.239075
0.255794
0.268001
0.277951
0.287067
0.297118
0.309405
0.325818
0.344224
0.361675
0.375561
0.382305
0.384097
0.380669
0.37245
0.359809
0.343091
0.322275
0.297278
0.268473
0.236411
0.201959
0.167062
0.13529
0.109615
0.0989775
0.102714
0.124754
0.155508
0.185672
0.210847
0.230378
0.245614
0.258767
0.271724
0.2865
0.304552
0.327617
0.351585
0.373601
0.39061
0.398729
0.400858
0.396784
0.387247
0.373112
0.355104
0.333469
0.308203
0.279675
0.248075
0.214292
0.180007
0.14822
0.121536
0.0936335
0.0903091
0.102928
0.127768
0.156397
0.182606
0.204441
0.222508
0.238806
0.25533
0.274418
0.298512
0.328055
0.357945
0.384428
0.404395
0.413795
0.41617
0.411431
0.400665
0.385187
0.366066
0.34374
0.318249
0.289975
0.2589
0.225827
0.192262
0.160709
0.133328
0.0968078
0.0891048
0.0926076
0.107917
0.131344
0.156357
0.179339
0.199713
0.218921
0.23889
0.261999
0.291923
0.327715
0.363529
0.3943
0.417029
0.427638
0.430182
0.424779
0.412893
0.396241
0.376186
0.353284
0.327717
0.29966
0.269101
0.236746
0.204026
0.17267
0.144918
0.108401
0.0986518
0.0956384
0.101058
0.115364
0.13529
0.157061
0.178507
0.200012
0.223112
0.250275
0.285288
0.327086
0.3685
0.403325
0.428639
0.440395
0.443063
0.437038
0.424168
0.406522
0.385685
0.362406
0.336853
0.308994
0.278911
0.247286
0.215306
0.184136
0.156223
0.129993
0.118915
0.11205
0.109112
0.112217
0.123789
0.140414
0.160602
0.183135
0.208692
0.239892
0.279592
0.326302
0.372964
0.411607
0.439374
0.452249
0.455048
0.448499
0.434802
0.41633
0.394909
0.371409
0.34595
0.318259
0.288626
0.25776
0.226141
0.195137
0.167158
0.161605
0.149319
0.139605
0.13106
0.124815
0.124085
0.13264
0.148157
0.16956
0.19664
0.231342
0.274828
0.32539
0.377023
0.419301
0.44946
0.463485
0.466484
0.459572
0.445236
0.42613
0.404306
0.380711
0.355404
0.327929
0.298808
0.268306
0.236733
0.205748
0.177637
0.202125
0.188249
0.175885
0.163121
0.149978
0.139166
0.13574
0.143181
0.160891
0.187887
0.224794
0.271154
0.324613
0.380908
0.426701
0.45928
0.474563
0.477908
0.470878
0.456128
0.43663
0.414568
0.390973
0.365902
0.338837
0.309675
0.278978
0.247222
0.216074
0.187723
0.250041
0.233988
0.218735
0.202221
0.183822
0.165053
0.1508
0.146969
0.157496
0.182533
0.220156
0.268745
0.324793
0.385135
0.434382
0.469519
0.486262
0.490187
0.48339
0.468519
0.448921
0.426885
0.403452
0.378292
0.350992
0.321413
0.290004
0.257772
0.22624
0.197509
0.303836
0.285122
0.26665
0.246406
0.223501
0.198517
0.175312
0.160774
0.161316
0.180672
0.217828
0.267878
0.327457
0.390666
0.443453
0.481413
0.499921
0.504771
0.498726
0.484154
0.465002
0.442932
0.419004
0.39314
0.364806
0.334238
0.301702
0.26864
0.236445
0.207144
0.362256
0.34065
0.318795
0.294822
0.267764
0.237652
0.20735
0.183323
0.173661
0.185772
0.21954
0.271153
0.334415
0.399831
0.456041
0.497219
0.517926
0.524176
0.519727
0.50599
0.486714
0.463764
0.43843
0.410978
0.380979
0.348796
0.31481
0.280358
0.24707
0.216911
0.424509
0.400145
0.375093
0.347676
0.316927
0.282568
0.246669
0.214847
0.195943
0.198793
0.229516
0.281651
0.347306
0.415936
0.476343
0.521132
0.544652
0.552955
0.549741
0.536111
0.515744
0.490968
0.463323
0.433404
0.40107
0.366502
0.330551
0.294149
0.258978
0.227349
0.490673
0.464164
0.436678
0.406693
0.373267
0.335865
0.295924
0.258158
0.231195
0.224837
0.250125
0.302503
0.371168
0.444331
0.510103
0.559136
0.58521
0.595296
0.592861
0.578598
0.556165
0.528348
0.497128
0.463508
0.427756
0.38989
0.350859
0.311875
0.27421
0.240059
0.562679
0.535346
0.507024
0.476283
0.442132
0.403772
0.362067
0.320864
0.288008
0.274001
0.291925
0.343604
0.416045
0.495116
0.567307
0.620747
0.648804
0.660072
0.657424
0.641207
0.615227
0.582691
0.546146
0.507073
0.466187
0.423779
0.380225
0.336966
0.295231
0.257077
0.646356
0.620648
0.594274
0.565814
0.534097
0.498156
0.458402
0.417919
0.383504
0.365203
0.376256
0.425113
0.50049
0.585854
0.664284
0.720841
0.749877
0.761015
0.756452
0.736486
0.705081
0.66582
0.621825
0.575124
0.526867
0.477661
0.42784
0.378125
0.329452
0.2844
0.755436
0.735113
0.714587
0.692421
0.667361
0.638409
0.605784
0.572009
0.542523
0.525562
0.533137
0.577859
0.652091
0.740264
0.821756
0.877762
0.905504
0.914572
0.906138
0.880937
0.842951
0.795904
0.743272
0.687443
0.629939
0.571616
0.512699
0.453588
0.394594
0.337444
0.914424
0.904013
0.892852
0.880678
0.866197
0.848365
0.827196
0.804791
0.785242
0.774518
0.783154
0.823196
0.891353
0.973835
1.05049
1.09924
1.12207
1.1269
1.11393
1.08446
1.04232
0.990981
0.933267
0.871372
0.806585
0.739833
0.671113
0.600185
0.526844
0.452911
1.14033
1.13918
1.14141
1.14195
1.13882
1.13159
1.12029
1.10706
1.09549
1.09047
1.10105
1.13551
1.19227
1.25887
1.3174
1.34808
1.36057
1.35878
1.34349
1.31575
1.27883
1.23557
1.1873
1.13444
1.07609
1.01207
0.942384
0.866062
0.782085
0.692431
1.35709
1.36051
1.37457
1.38803
1.39505
1.39331
1.38425
1.37162
1.36032
1.35582
1.36552
1.3922
1.43175
1.47266
1.49936
1.50045
1.49667
1.48538
1.47036
1.45085
1.42947
1.40873
1.38894
1.36863
1.3444
1.30975
1.26572
1.21097
1.14356
1.06446
1.35733
1.37215
1.39607
1.4171
1.42826
1.42833
1.41773
1.40289
1.38934
1.38307
1.38895
1.4058
1.42831
1.44646
1.44778
1.42798
1.4114
1.39286
1.3769
1.3628
1.35268
1.34767
1.3475
1.35097
1.355
1.35528
1.34966
1.33648
1.31541
1.28541
0.149691
0.173597
0.180932
0.183866
0.183679
0.180869
0.176161
0.170201
0.163408
0.156155
0.148562
0.140929
0.133223
0.125971
0.119308
0.113906
0.109969
0.109561
0.113818
0.119571
0.121345
0.11619
0.103705
0.0854589
0.0639262
0.0423986
0.0245589
0.0225625
0.0213651
0.0229335
0.237904
0.273363
0.283582
0.2846
0.279409
0.27085
0.260615
0.249592
0.238224
0.226802
0.215273
0.203839
0.192269
0.181356
0.171243
0.162925
0.156941
0.158305
0.168347
0.181786
0.19009
0.188288
0.173934
0.148791
0.116437
0.0815501
0.0501403
0.0338041
0.0296845
0.031334
0.287434
0.326667
0.344094
0.350009
0.347784
0.340858
0.331057
0.319469
0.306766
0.293464
0.279719
0.265854
0.25186
0.238762
0.2269
0.217213
0.210248
0.211732
0.222571
0.237027
0.246096
0.244315
0.228284
0.199367
0.160902
0.117518
0.0765879
0.0478049
0.0375579
0.0402062
0.315003
0.353046
0.374876
0.386552
0.388905
0.385361
0.377763
0.367355
0.355062
0.341605
0.327388
0.312846
0.298264
0.28474
0.272771
0.263077
0.256057
0.25754
0.267788
0.281216
0.289308
0.286668
0.269649
0.238957
0.197376
0.149257
0.102034
0.0638177
0.0450203
0.0432038
0.324884
0.358035
0.385442
0.403506
0.411069
0.411953
0.4075
0.399299
0.388539
0.37615
0.362759
0.348902
0.335144
0.322562
0.311658
0.302909
0.29651
0.298063
0.3072
0.318605
0.324741
0.320585
0.302614
0.271051
0.22812
0.17763
0.12654
0.0816655
0.0547524
0.047333
0.321979
0.350547
0.379661
0.402543
0.417539
0.424182
0.423531
0.418358
0.410048
0.399773
0.388348
0.376408
0.364742
0.35429
0.345407
0.338338
0.333097
0.334802
0.342567
0.351435
0.355031
0.348784
0.32971
0.297679
0.254407
0.203123
0.149984
0.100726
0.0670956
0.054108
0.311597
0.335353
0.36537
0.392409
0.412189
0.423439
0.427758
0.426383
0.421361
0.414157
0.405729
0.396875
0.388518
0.381269
0.375232
0.370445
0.366766
0.368683
0.374927
0.380986
0.381657
0.37293
0.352545
0.320169
0.277109
0.226079
0.171801
0.119721
0.0813401
0.0633029
0.291491
0.310119
0.341021
0.371844
0.396442
0.412708
0.421769
0.424733
0.423735
0.420506
0.416092
0.411457
0.407578
0.40451
0.402042
0.400014
0.398139
0.400284
0.40489
0.408039
0.405445
0.394039
0.372169
0.339446
0.29685
0.246497
0.191771
0.138241
0.0965761
0.0743009
0.260229
0.275612
0.307634
0.342189
0.371721
0.392883
0.406922
0.414609
0.418348
0.419916
0.420409
0.421146
0.422866
0.42487
0.426595
0.427644
0.427659
0.429964
0.432836
0.432992
0.426955
0.412784
0.389327
0.35619
0.314311
0.264397
0.210014
0.156156
0.112256
0.0865218
0.227683
0.239296
0.270691
0.307049
0.339861
0.365458
0.384598
0.397345
0.406342
0.413413
0.419605
0.42697
0.435263
0.443091
0.44951
0.453814
0.455623
0.457977
0.45904
0.456043
0.446576
0.42966
0.404586
0.370941
0.329319
0.280301
0.226745
0.17331
0.128097
0.0995178
0.19725
0.203688
0.232501
0.269185
0.304283
0.333477
0.356646
0.374295
0.388951
0.402111
0.414952
0.430122
0.445507
0.459787
0.471212
0.478861
0.482304
0.484527
0.483611
0.477409
0.464623
0.445071
0.418415
0.384207
0.342759
0.29464
0.242153
0.189557
0.143862
0.11298
0.171347
0.171458
0.195504
0.230676
0.266824
0.298747
0.325572
0.347856
0.367748
0.387327
0.407508
0.431366
0.454336
0.47546
0.492007
0.503062
0.507914
0.509786
0.506681
0.497308
0.481388
0.459397
0.431227
0.396447
0.355134
0.307836
0.256517
0.205034
0.159313
0.126684
0.152119
0.145415
0.162839
0.194159
0.229646
0.263204
0.293073
0.319658
0.344775
0.370418
0.398475
0.430982
0.462348
0.490546
0.512242
0.526659
0.532653
0.533906
0.528451
0.516005
0.497197
0.473032
0.443464
0.408087
0.366882
0.320341
0.270268
0.219748
0.174222
0.140461
0.140006
0.128798
0.138668
0.163427
0.19576
0.229214
0.261139
0.291376
0.32148
0.353153
0.389015
0.430232
0.470093
0.505427
0.532241
0.549889
0.556733
0.557103
0.549198
0.533858
0.512463
0.486427
0.455659
0.419667
0.37852
0.332833
0.283595
0.233635
0.188447
0.154106
0.139763
0.12494
0.127034
0.143339
0.169347
0.199922
0.232093
0.264908
0.299385
0.336941
0.380882
0.429504
0.477972
0.520423
0.552321
0.573017
0.580438
0.579652
0.569334
0.551363
0.527732
0.500136
0.468408
0.431937
0.390954
0.34548
0.296492
0.246836
0.202002
0.167431
0.149317
0.134002
0.129991
0.137276
0.15522
0.179111
0.20873
0.2422
0.279828
0.323168
0.373929
0.428942
0.486303
0.535848
0.572834
0.596366
0.60412
0.602001
0.589454
0.569215
0.543743
0.514876
0.482508
0.445871
0.404263
0.358285
0.308898
0.259429
0.214926
0.180359
0.171962
0.156326
0.148414
0.147279
0.153835
0.170077
0.193985
0.225272
0.264674
0.312572
0.368483
0.429292
0.495479
0.552081
0.594218
0.620375
0.628294
0.624831
0.610427
0.58841
0.56151
0.531782
0.499092
0.461229
0.418323
0.371006
0.320986
0.271536
0.227295
0.192831
0.207958
0.190949
0.17954
0.172125
0.169144
0.173502
0.188483
0.215723
0.254528
0.304621
0.364908
0.432048
0.506002
0.569663
0.617095
0.645695
0.653754
0.649197
0.633555
0.61039
0.582688
0.552219
0.518046
0.477911
0.432786
0.383847
0.33295
0.283332
0.239226
0.204801
0.255356
0.235886
0.220727
0.207817
0.197129
0.191122
0.194626