/*--------------------------------*- C++ -*----------------------------------*\
| =========                 |                                                 |
| \\      /  F ield         | OpenFOAM: The Open Source CFD Toolbox           |
|  \\    /   O peration     | Version:  5.0                                   |
|   \\  /    A nd           | Web:      www.OpenFOAM.org                      |
|    \\/     M anipulation  |                                                 |
\*---------------------------------------------------------------------------*/
FoamFile
{
    version     2.0;
    format      ascii;
    class       volScalarField;
    location    "1300/air";
    object      nut;
}
// * * * * * * * * * * * * * * * * * * * * * * * * * * * * * * * * * * * * * //

dimensions      [0 2 -1 0 0 0 0];

internalField   nonuniform List<scalar> 
243000
(
0.000128849
0.000133771
0.000132384
0.000129136
0.000124641
0.000119502
0.000114107
0.000108711
0.000103474
9.85058e-05
9.38287e-05
8.94768e-05
8.54277e-05
8.17735e-05
7.85749e-05
7.60438e-05
7.43197e-05
7.34033e-05
7.52859e-05
7.49271e-05
7.47443e-05
7.47556e-05
7.43349e-05
0.000334758
7.22024e-05
0.000318589
7.08581e-05
6.80269e-05
0.000290962
0.00030085
0.000554105
0.000596515
0.000609624
0.000613073
0.000610295
0.000603302
0.000593402
0.000581561
0.000568371
0.000554248
0.00053936
0.000524052
0.000508498
0.000493558
0.000479847
0.000468726
0.000460775
0.00045697
0.00045079
0.000453406
0.000449866
0.000442914
0.000431585
0.000417306
0.000398148
0.000377219
0.000349719
0.000323422
0.000296035
0.000280036
0.000590745
0.000634948
0.000651191
0.000656712
0.000655032
0.000648654
0.000638999
0.000627118
0.000613673
0.000599172
0.000583878
0.000568295
0.000552713
0.000538178
0.000525407
0.000515904
0.000510053
0.000508131
0.000507569
0.000507095
0.000503699
0.000496416
0.000484281
0.000467341
0.000445952
0.000421334
0.000393774
0.000363025
0.000330045
0.00030207
0.000597731
0.000645721
0.000668286
0.000677512
0.000678789
0.000674635
0.000666633
0.000655944
0.000643348
0.000629473
0.000614696
0.000599685
0.00058485
0.000571429
0.000560247
0.00055293
0.000549617
0.000549934
0.000551165
0.00055106
0.000547554
0.000539715
0.000526815
0.000508815
0.000486245
0.000459857
0.00043014
0.000396489
0.000361292
0.000328804
0.00058788
0.000638223
0.000666899
0.000682183
0.000688022
0.000687106
0.000681613
0.000672873
0.000661833
0.000649239
0.000635606
0.000621748
0.000608226
0.000596461
0.000587364
0.000582649
0.000582123
0.000584739
0.000587403
0.000587769
0.000584019
0.000575553
0.000561952
0.000543252
0.000519941
0.000492591
0.000461638
0.000426421
0.000389622
0.000354953
0.000565434
0.000619324
0.000654577
0.000675562
0.000686258
0.000689377
0.000686995
0.000680729
0.000671798
0.000660953
0.000648926
0.000636658
0.000624877
0.000615182
0.000608571
0.000606796
0.000609153
0.000614045
0.000618024
0.000618772
0.000614738
0.000605653
0.000591422
0.000572198
0.000548436
0.000520614
0.000489108
0.00045322
0.000415219
0.000379215
0.000534479
0.000591772
0.00063309
0.000659903
0.000675857
0.000683456
0.000684787
0.000681599
0.000675011
0.000666205
0.000656212
0.000645883
0.000636182
0.000628903
0.000625111
0.000626537
0.00063182
0.000638912
0.000644102
0.000645168
0.000640854
0.000631203
0.00061642
0.000596789
0.000572772
0.000544787
0.000513144
0.000477142
0.000438333
0.000401451
0.000501139
0.000561283
0.000606038
0.00063742
0.000658519
0.000670813
0.000676192
0.000676439
0.000672759
0.00066653
0.000658619
0.000650461
0.000643136
0.000638573
0.000637881
0.000642705
0.00065092
0.000660115
0.000666413
0.000667761
0.000663199
0.000653057
0.000637797
0.000617854
0.000593714
0.000565764
0.000534243
0.000498464
0.000459349
0.000421847
0.00046916
0.000528738
0.000577625
0.000612703
0.000636836
0.000653002
0.00066243
0.0006663
0.000665862
0.000662417
0.000657019
0.000651244
0.000646489
0.000644886
0.000647568
0.000655906
0.000667051
0.000678225
0.00068554
0.000687152
0.00068239
0.00067184
0.00065619
0.000636015
0.000611844
0.000584053
0.000552814
0.000517538
0.000478272
0.000440483
0.000446814
0.000494771
0.000546838
0.000586316
0.000614222
0.000633255
0.000645151
0.000652326
0.000655131
0.0006547
0.00065204
0.00064887
0.000646851
0.000648428
0.00065467
0.000666594
0.000680654
0.00069368
0.000701927
0.000703799
0.000698895
0.000688032
0.000672079
0.00065175
0.000627617
0.000600063
0.000569224
0.000534432
0.000495368
0.000457507
0.000444413
0.00046571
0.000514038
0.000557363
0.000589715
0.000612388
0.000627294
0.000636625
0.000641704
0.000644086
0.000644256
0.000643842
0.000644719
0.000649635
0.000659583
0.000675132
0.000692046
0.00070681
0.000715917
0.000718054
0.00071308
0.000701995
0.000685836
0.000665429
0.000641396
0.000614128
0.000583758
0.000549385
0.000510721
0.000473147
0.000473027
0.000457511
0.000484749
0.00052634
0.000562701
0.000589671
0.000608243
0.000620334
0.000627562
0.00063158
0.000634293
0.000636613
0.000640464
0.000648873
0.000662627
0.000681796
0.000701452
0.000717878
0.000727775
0.000730196
0.000725225
0.000714018
0.000697751
0.000677346
0.000653468
0.000626562
0.000596529
0.000562598
0.000524571
0.00048734
0.000514006
0.000487209
0.000475257
0.00049902
0.000534169
0.000564823
0.000587522
0.000603015
0.000612905
0.000618936
0.000623034
0.000627673
0.000634437
0.000646426
0.00066406
0.000686789
0.000709066
0.000727067
0.000737709
0.000740441
0.000735555
0.000724331
0.000708058
0.000687734
0.000664066
0.000637484
0.000607791
0.000574291
0.000537048
0.000500236
0.000554363
0.000532638
0.000500653
0.000490497
0.000509997
0.000539231
0.000565169
0.000584398
0.00059745
0.000605907
0.000611756
0.000617645
0.000626995
0.000642517
0.000663999
0.000690248
0.000715021
0.000734515
0.000745883
0.000748966
0.000744249
0.000733113
0.000716937
0.00069677
0.000673412
0.00064712
0.000617742
0.000584625
0.000548288
0.000511974
0.000593753
0.00057596
0.000549823
0.000515632
0.000503761
0.000518575
0.000542793
0.000564715
0.00058107
0.000592318
0.000600271
0.000607619
0.000618577
0.000637397
0.000662674
0.000692276
0.000719407
0.000740313
0.000752436
0.00075591
0.00075145
0.000740509
0.000724523
0.000704637
0.000681594
0.000655622
0.000626544
0.000593762
0.000558418
0.000522668
0.00063235
0.000616867
0.00059447
0.000560869
0.000526255
0.000513696
0.000525231
0.000545456
0.000564059
0.000578129
0.000588466
0.000597618
0.000609738
0.000631307
0.000660154
0.000692923
0.000722274
0.000744535
0.000757454
0.000761381
0.000757269
0.000746629
0.00073097
0.000711475
0.000688768
0.000663128
0.000634334
0.000601854
0.000567562
0.000532422
0.00067035
0.000655896
0.000635619
0.000607305
0.00056726
0.000532259
0.000520381
0.00053025
0.000547584
0.000563605
0.00057634
0.000587539
0.0006012
0.0006245
0.000656532
0.000692271
0.000723596
0.000747196
0.000760994
0.000765463
0.000761817
0.000751606
0.000736407
0.000717343
0.000695045
0.000669759
0.000641253
0.000609058
0.000575848
0.000541342
0.000707757
0.000693469
0.000674081
0.000647924
0.000610892
0.000567818
0.000534088
0.000524586
0.000534134
0.000549559
0.000564091
0.000577381
0.00059286
0.000617194
0.000651894
0.000690297
0.000723648
0.000748374
0.000763084
0.00076825
0.000765181
0.000755536
0.000740907
0.00072235
0.000700527
0.000675632
0.000647448
0.000615963
0.000583548
0.00054959
0.000744554
0.000729865
0.000710628
0.000685475
0.000651768
0.000608921
0.000563386
0.00053289
0.000527281
0.00053754
0.000552226
0.000567266
0.000584662
0.000609994
0.000646375
0.000687035
0.000722199
0.000748299
0.000763839
0.000769802
0.00076744
0.000758524
0.000744542
0.000726599
0.000705332
0.000680888
0.000653066
0.000622504
0.00059079
0.000557309
0.000780663
0.000765218
0.000745673
0.000720863
0.000689546
0.000648899
0.000600012
0.000554527
0.0005302
0.000529694
0.000541614
0.000557487
0.000576633
0.00060314
0.000640125
0.000682536
0.000719298
0.00074672
0.000763384
0.000770183
0.000768687
0.000760589
0.000747398
0.000730204
0.000709599
0.000685693
0.000658274
0.000628706
0.000597662
0.000564604
0.000815998
0.000799563
0.000779433
0.000754587
0.00072469
0.0006861
0.000637641
0.000584637
0.000543626
0.000528152
0.000533467
0.000548495
0.000568888
0.00059654
0.000633387
0.000676871
0.000714991
0.000743668
0.000761474
0.000769382
0.000768855
0.000761792
0.000749558
0.000733256
0.000713445
0.000690196
0.000663267
0.000634672
0.000604261
0.000571587
0.000850565
0.000832987
0.000812123
0.000787169
0.000758152
0.000720877
0.000673689
0.000618066
0.000565424
0.00053405
0.000529094
0.000540923
0.000561636
0.00059025
0.000627177
0.00067027
0.000709294
0.000739155
0.000758194
0.000767379
0.000768043
0.000762112
0.000751053
0.000735815
0.000716965
0.000694539
0.000668389
0.000640597
0.000610734
0.000578365
0.000884526
0.000865903
0.0008445
0.000820933
0.000791384
0.000754257
0.000707847
0.000651647
0.000592301
0.000547097
0.000529564
0.000535617
0.000555333
0.000584432
0.000621426
0.000663462
0.000702369
0.000733154
0.000753417
0.00076398
0.000766022
0.00076141
0.000751734
0.000737809
0.000720164
0.000698797
0.000673686
0.000646658
0.000617292
0.000585136
0.000919183
0.000900818
0.000879908
0.000854672
0.000823975
0.000786461
0.000740278
0.000684242
0.000621602
0.000566077
0.000535591
0.00053348
0.000550617
0.000579481
0.000616385
0.000657601
0.000695933
0.000726623
0.000747618
0.000759366
0.000762818
0.000759703
0.000751443
0.000739022
0.000722869
0.000702885
0.000679189
0.000653011
0.00062411
0.000592083
0.00095303
0.000935636
0.000914053
0.000887108
0.000855282
0.000817411
0.000771604
0.00071625
0.00065251
0.000590221
0.000547965
0.000536088
0.000548793
0.000576573
0.000613135
0.000653646
0.00069135
0.000721913
0.000743533
0.000756397
0.000761181
0.00075936
0.000752265
0.000740952
0.000725961
0.000707405
0.00068526
0.000660039
0.000631592
0.000599545
0.000979972
0.000962794
0.000941502
0.000915197
0.000884464
0.000847808
0.000803508
0.000749881
0.000686907
0.000621184
0.000569602
0.000547384
0.000553865
0.000579503
0.000615312
0.000654977
0.000691967
0.000722243
0.000744084
0.000757509
0.000763197
0.000762523
0.000756458
0.000746067
0.000732032
0.00071457
0.000693618
0.000669289
0.000641169
0.000608746
0.00100381
0.00098694
0.000967482
0.000944147
0.000916103
0.000882243
0.000841109
0.000791094
0.000731566
0.000666634
0.000610162
0.000579134
0.000578106
0.000600353
0.000634416
0.000672209
0.000707212
0.000735952
0.000756847
0.000769915
0.000775701
0.000775386
0.000769745
0.000759798
0.000746238
0.000729349
0.000709002
0.000685144
0.000657075
0.000623772
0.00103931
0.0010233
0.00100539
0.000984892
0.000960968
0.000932509
0.000898079
0.000856182
0.000805984
0.000749748
0.000697586
0.000664821
0.000658592
0.000675412
0.000704834
0.00073713
0.000766114
0.000789792
0.000806689
0.000816681
0.000820289
0.000818381
0.000811598
0.000800802
0.000786594
0.000769172
0.00074852
0.000724322
0.00069551
0.000660109
0.00110754
0.00109506
0.00108275
0.00107025
0.0010568
0.00104114
0.00102176
0.000997515
0.000967844
0.000933371
0.000900549
0.000879324
0.000874293
0.000884387
0.00090277
0.00092248
0.000938918
0.000951554
0.000959382
0.000962376
0.000960873
0.000955273
0.000946088
0.000933715
0.000918434
0.000899662
0.000878359
0.000854209
0.000825731
0.000790813
0.00133563
0.00133476
0.00133735
0.00133949
0.00134049
0.00133969
0.0013365
0.00133084
0.00132248
0.00130936
0.0012968
0.00128799
0.00128378
0.00128424
0.00128715
0.00129188
0.00129541
0.00129868
0.00130096
0.00130267
0.00130358
0.00130384
0.00130321
0.00130148
0.00129796
0.00128879
0.00127948
0.00126923
0.00125476
0.0012366
0.000156698
0.000165063
0.000164738
0.000161364
0.000156235
0.000150185
0.000143735
0.000137231
0.00013087
0.000124809
0.000119105
0.000113859
0.000109088
0.000104972
0.000101593
9.92056e-05
9.7831e-05
9.74884e-05
9.78489e-05
9.86354e-05
9.89244e-05
9.80609e-05
9.55276e-05
9.11332e-05
8.50139e-05
7.75071e-05
7.11461e-05
0.00030785
0.000310647
7.45473e-05
0.000562389
0.000647621
0.000637313
0.000601781
0.000560867
0.000520388
0.000483826
0.00045164
0.000423534
0.000399312
0.000378242
0.00036058
0.000345523
0.00033438
0.00032631
0.000322334
0.000319876
0.000319164
0.000318028
0.000316737
0.000315241
0.00031283
0.000306086
0.000294228
0.000277059
0.000253803
0.000233801
0.000277714
0.000346612
0.000304737
0.00087179
0.00102559
0.00105071
0.00102571
0.000979711
0.00092733
0.000875955
0.000828511
0.00078574
0.000748211
0.000715324
0.000688118
0.000665638
0.000650601
0.000641534
0.000639398
0.000638122
0.000636171
0.000628549
0.00061662
0.000602738
0.000587971
0.000569744
0.000543173
0.00050738
0.0004619
0.000414312
0.000382052
0.000391561
0.000416489
0.0010279
0.00123051
0.00131246
0.00131634
0.00128678
0.00124109
0.00119032
0.00114041
0.00109364
0.00105178
0.00101515
0.000985878
0.000963669
0.000952175
0.000949268
0.000955201
0.00095969
0.00095787
0.000943538
0.000919083
0.000889788
0.000859459
0.000824997
0.000781659
0.000727361
0.000661279
0.000588452
0.000515611
0.000470195
0.000463468
0.00109428
0.00130846
0.00142984
0.0014819
0.0014871
0.00146002
0.00141976
0.00137612
0.00133326
0.00129421
0.00126069
0.00123603
0.00122105
0.00121994
0.0012299
0.00124952
0.00126253
0.00126178
0.00124139
0.00120499
0.00116049
0.00111434
0.00106442
0.00100561
0.000935048
0.0008512
0.000758374
0.000659724
0.000575796
0.000528353
0.00109373
0.00132253
0.00147804
0.00156374
0.00159873
0.00159758
0.00157469
0.00154308
0.00151
0.00147925
0.00145438
0.00143993
0.00143799
0.00145339
0.0014823
0.00151968
0.00154248
0.00154287
0.00151672
0.00146909
0.00141063
0.0013498
0.00128583
0.00121351
0.00112882
0.00103134
0.000923584
0.000807215
0.000697575
0.000615225
0.00104167
0.00127248
0.0014542
0.00157379
0.00164049
0.00166691
0.00166669
0.00165286
0.00163176
0.00161339
0.00160191
0.00160245
0.00161848
0.00165581
0.00170966
0.00176738
0.00179965
0.00180065
0.00176887
0.00171075
0.00163969
0.0015658
0.00148938
0.00140498
0.00130953
0.00120171
0.00108296
0.0009542
0.000828097
0.000717994
0.00093547
0.00115539
0.00136364
0.00152097
0.00162213
0.00167831
0.00170313
0.00170934
0.00170633
0.0017041
0.00170882
0.00172834
0.00176685
0.00183188
0.00191512
0.00199465
0.00203524
0.0020359
0.00199861
0.00193084
0.00184859
0.00176335
0.00167604
0.00158147
0.00147746
0.00136188
0.00123538
0.00109819
0.00096173
0.000830013
0.000815344
0.00100651
0.00122333
0.0014128
0.00155076
0.00163917
0.00169182
0.00172041
0.00173812
0.0017557
0.00178104
0.0018222
0.00188769
0.00198621
0.00210081
0.00220298
0.00225081
0.00224966
0.00220732
0.00213081
0.00203881
0.00194386
0.00184675
0.00174398
0.0016333
0.00151224
0.00138042
0.00123727
0.00109485
0.00094612
0.000707965
0.000853411
0.00105871
0.00126487
0.00143254
0.00155441
0.00163822
0.00169074
0.001732
0.00177285
0.00182187
0.00188844
0.00198537
0.00212143
0.00226914
0.00239316
0.00244779
0.00244339
0.00239647
0.00231229
0.00221202
0.002109
0.00200308
0.00189364
0.00177782
0.00165316
0.0015181
0.00137215
0.00122604
0.00106262
0.000641768
0.00072241
0.000893657
0.00109672
0.00128257
0.00143197
0.00154497
0.00162601
0.00169311
0.00175929
0.00183503
0.00193061
0.00206266
0.00224065
0.002422
0.00256639
0.00262684
0.00261841
0.00256757
0.00247697
0.00237011
0.00225981
0.00214682
0.00203183
0.00191212
0.00178507
0.0016493
0.00150117
0.00135099
0.00117591
0.000633204
0.00064328
0.000754606
0.000930519
0.00111784
0.00128521
0.0014228
0.00153085
0.00162623
0.00172043
0.00182386
0.00195154
0.0021244
0.00234707
0.00256065
0.00272349
0.00278858
0.00277625
0.00272192
0.00262651
0.00251469
0.00239722
0.00227914
0.00215981
0.00203726
0.00190913
0.00177239
0.00162293
0.00146925
0.00128427
0.000678741
0.000635835
0.000674173
0.000793607
0.000959988
0.00112982
0.00128353
0.00141467
0.00153652
0.00165861
0.00179247
0.00195383
0.0021721
0.00244182
0.00268544
0.00286372
0.00293349
0.00291804
0.00286097
0.00276246
0.00264677
0.00252396
0.00240156
0.00227884
0.00215433
0.00202585
0.00188746
0.00173783
0.00158039
0.00138777
0.000779118
0.000705322
0.000678118
0.000723294
0.000836315
0.000986452
0.00114175
0.00128841
0.0014317
0.00157935
0.00174329
0.00194041
0.0022072
0.00251879
0.00279559
0.00298709
0.00306194
0.00304519
0.00298599
0.00288617
0.00276654
0.00264077
0.00251514
0.00239001
0.00226481
0.00213476
0.00199563
0.00184599
0.00168506
0.00148692
0.000938687
0.000843955
0.000775618
0.000746262
0.000782246
0.000881332
0.00101663
0.00116437
0.00132043
0.00148899
0.00168041
0.00191536
0.00223033
0.00258488
0.00289079
0.00309401
0.00317342
0.00315872
0.00309796
0.00299827
0.00287621
0.0027486
0.00262131
0.00249492
0.00236889
0.00223743
0.00209783
0.00194865
0.00178362
0.00158184
0.0011617
0.00105295
0.000954586
0.000871089
0.000825785
0.000844996
0.000931028
0.00105812
0.0012133
0.00139487
0.00160959
0.00188324
0.00224201
0.00263907
0.0029702
0.00318332
0.00326726
0.00325684
0.00319747
0.00309859
0.0029768
0.00284914
0.00272116
0.00259482
0.00246728
0.00233481
0.00219505
0.00204782
0.00187699
0.00167047
0.00144696
0.00132815
0.00120408
0.00108047
0.000969987
0.000902835
0.000907994
0.000988887
0.00112346
0.00130575
0.00153816
0.0018472
0.00224447
0.00267993
0.0030329
0.00325406
0.00334292
0.00333893
0.00328292
0.00318796
0.00306885
0.00294252
0.00281511
0.002689
0.00256076
0.00242777
0.00228822
0.00214324
0.00196578
0.00175374
0.00176869
0.0016465
0.00150524
0.0013528
0.00119467
0.0010539
0.0009697
0.000972223
0.00106549
0.00123181
0.00147397
0.00181089
0.00224229
0.00270541
0.00307507
0.00330469
0.00339928
0.00340383
0.00335411
0.00326543
0.00315161
0.00302844
0.00290305
0.00277746
0.00264964
0.00251697
0.00237939
0.00223299
0.00204997
0.00183221
0.00211407
0.00198874
0.00183877
0.00166657
0.00147445
0.00127778
0.00111282
0.0010272
0.00104874
0.0011838
0.00142274
0.00177884
0.00223098
0.0027114
0.00309243
0.00332998
0.00343456
0.00345051
0.00341011
0.00332811
0.00322229
0.00310522
0.00298383
0.00285993
0.00273376
0.00260329
0.00246883
0.00231836
0.00213006
0.00190658
0.00246536
0.00233859
0.00218474
0.00199973
0.00178424
0.00154749
0.00131885
0.00114943
0.00108909
0.00116386
0.00138871
0.00174796
0.00220907
0.00269795
0.00308543
0.00332913
0.00344583
0.00347467
0.00344577
0.00337357
0.00327545
0.00316578
0.0030523
0.00293587
0.00281511
0.0026892
0.00255661
0.00240079
0.00220697
0.00197773
0.00280123
0.00267535
0.0025211
0.00232914
0.00209893
0.00183541
0.00156111
0.00132305
0.00118196
0.00118479
0.00136708
0.00171944
0.00217679
0.00264657
0.0030387
0.00328994
0.00342012
0.00346473
0.00345104
0.00339422
0.00330774
0.00320753
0.00310305
0.00299494
0.00288236
0.00276563
0.00263912
0.0024787
0.00228012
0.00204534
0.00309701
0.00297495
0.00282303
0.00262956
0.00239242
0.00211369
0.0018103
0.00152256
0.00131219
0.00124339
0.0013663
0.00167491
0.00210354
0.00255922
0.0029377
0.00319345
0.00333905
0.00340257
0.00340733
0.00337217
0.00330496
0.00322101
0.00312964
0.00303322
0.00293068
0.00282341
0.00270366
0.00254533
0.0023436
0.00210661
0.00332476
0.00320946
0.00306269
0.0028736
0.00263713
0.00235347
0.00203546
0.00171673
0.00145405
0.00131909
0.00136678
0.0016297
0.00200622
0.00241074
0.00275583
0.00300966
0.0031737
0.00325486
0.00328355
0.00327663
0.00323665
0.00317712
0.00310688
0.0030293
0.00294428
0.00285032
0.00273929
0.00259188
0.00239819
0.00216335
0.00345166
0.00334519
0.00321112
0.00303378
0.00280569
0.0025259
0.00220522
0.00187191
0.00157493
0.00138214
0.0013521
0.00153132
0.00183889
0.00217546
0.0024766
0.00271939
0.00289519
0.00299355
0.00304876
0.0030752
0.00306845
0.00304083
0.00299971
0.00294902
0.00288897
0.0028179
0.00272527
0.00259337
0.00241811
0.00219835
0.00347143
0.00337203
0.00324941
0.00308945
0.00287632
0.00260821
0.00229651
0.00196531
0.0016545
0.00142022
0.00131901
0.00139063
0.00160904
0.00188189
0.00213728
0.00236394
0.00253279
0.00264339
0.00271772
0.00276977
0.00279097
0.0027924
0.00278095
0.00276005
0.00272972
0.00268723
0.00262383
0.00252151
0.00237213
0.00217957
0.0033836
0.00329961
0.00319256
0.00304816
0.00285227
0.00260577
0.00232082
0.00201718
0.00172483
0.00148435
0.0013428
0.0013278
0.00145401
0.00166078
0.00187586
0.00207257
0.00221733
0.00232238
0.00240035
0.00245672
0.00248648
0.00249877
0.00250008
0.00249385
0.00248061
0.00245805
0.0024192
0.00235117
0.00223727
0.00207355
0.00321085
0.00315321
0.00306943
0.00294975
0.0027864
0.00258203
0.00235117
0.00210749
0.00187204
0.0016698
0.00153329
0.00148014
0.00154051
0.0016779
0.00184541
0.00199508
0.00210472
0.00218573
0.00224989
0.00229004
0.0023084
0.00231149
0.0023048
0.00229149
0.0022726
0.00224705
0.00221005
0.00215234
0.0020603
0.00191473
0.00304284
0.00301967
0.00297086
0.00289016
0.0027747
0.00262927
0.00246554
0.00229532
0.00213062
0.0019839
0.00187372
0.00181728
0.00183982
0.00192145
0.00203293
0.00213393
0.00220785
0.00226445
0.00230862
0.00233299
0.00234072
0.00233631
0.00232352
0.00230412
0.00227832
0.00224524
0.00220167
0.00213907
0.00204634
0.00190564
0.00290115
0.00289334
0.00288332
0.00285152
0.00279402
0.00271164
0.00261077
0.00250387
0.00239696
0.00229627
0.00221405
0.00216616
0.00216628
0.00220576
0.00226637
0.00232525
0.00236993
0.00240701
0.00243705
0.00245604
0.00246582
0.00246907
0.00246774
0.00246249
0.00245252
0.00243572
0.00240987
0.00236694
0.00230002
0.00219761
0.00282087
0.00282738
0.00283191
0.00282088
0.0027935
0.00275355
0.0027
0.00263845
0.00257376
0.00250887
0.00245608
0.00241874
0.00240562
0.00241478
0.00243609
0.00246398
0.00248914
0.00251044
0.00253107
0.00254947
0.00256556
0.00258043
0.00259428
0.00260728
0.00261874
0.00262681
0.00263144
0.00262357
0.00260423
0.00256902
0.000181842
0.000190086
0.000188248
0.000183982
0.000178034
0.000171137
0.000163841
0.000156525
0.00014941
0.000142678
0.000136385
0.000130649
0.000125458
0.000121023
0.000117397
0.000114855
0.000113376
0.000113278
0.000114655
0.000116777
0.000118149
0.000117491
0.00011394
0.000107134
9.71608e-05
8.45414e-05
6.88738e-05
0.000309674
0.000310077
7.79591e-05
0.000729262
0.00085348
0.000868547
0.000833054
0.00078176
0.000729628
0.000682167
0.000640254
0.000603404
0.000571333
0.000542725
0.000517847
0.000494731
0.000475653
0.000458441
0.000444893
0.000431402
0.000424346
0.000423065
0.000427433
0.000434491
0.000438972
0.000431474
0.000406601
0.000367885
0.000319803
0.000267732
0.000298614
0.000323116
0.000325465
0.0011471
0.00136478
0.0014416
0.00143408
0.00138706
0.00132597
0.00126371
0.00120471
0.00115023
0.00110139
0.00105724
0.001019
0.000984005
0.000956042
0.000931382
0.000910979
0.000886887
0.00086838
0.000852121
0.000840273
0.000833646
0.000824872
0.00079943
0.000752548
0.000678639
0.000584863
0.000486527
0.000422891
0.000415141
0.000487175
0.00140923
0.00168802
0.00181359
0.00183955
0.00181939
0.00177078
0.00171327
0.00165427
0.00159715
0.0015449
0.00149801
0.00145901
0.00142567
0.00140159
0.00138142
0.00136373
0.00133571
0.00130567
0.00127124
0.00123913
0.00121248
0.00118763
0.00114448
0.00107253
0.000968955
0.00083901
0.000699677
0.000577964
0.000513011
0.000548326
0.00153802
0.00181914
0.00198937
0.00208304
0.00210705
0.00208079
0.00203883
0.00199028
0.00194042
0.0018944
0.00185459
0.00182513
0.00180405
0.00179434
0.001788
0.00177953
0.00175051
0.00170794
0.00165419
0.00160184
0.00155468
0.00151089
0.00145264
0.00136257
0.00123743
0.00108149
0.000911339
0.000749595
0.000635393
0.000623091
0.00161458
0.00188258
0.0020793
0.00220453
0.00226435
0.00227941
0.00226184
0.00223091
0.00219527
0.002163
0.00213823
0.00212656
0.00212703
0.0021407
0.00215531
0.00215944
0.0021291
0.00207231
0.00199837
0.00192609
0.00185985
0.00179902
0.00172721
0.00162449
0.00148525
0.00131206
0.00112012
0.000929831
0.00077817
0.000723252
0.00164272
0.00188827
0.00209681
0.00224909
0.00234262
0.00238894
0.00240032
0.00239164
0.00237501
0.00236301
0.00236028
0.00237405
0.00240418
0.00244945
0.00249036
0.00250764
0.0024738
0.00240077
0.00230654
0.00221509
0.00213144
0.00205607
0.00197259
0.001861
0.00171345
0.00153048
0.00132446
0.00111379
0.00093499
0.00084535
0.00157761
0.00180267
0.00203023
0.00221392
0.00234221
0.0024226
0.00246483
0.00248352
0.00249283
0.00250572
0.00253003
0.00257627
0.00264331
0.00272748
0.00279955
0.00282841
0.00278649
0.00269617
0.00258249
0.00247306
0.00237405
0.00228651
0.0021929
0.00207508
0.0019234
0.0017362
0.00152396
0.0013015
0.00110132
0.000982836
0.00145323
0.0016586
0.00189508
0.00210659
0.002272
0.00238988
0.00246556
0.00251565
0.00255444
0.00259793
0.00265631
0.00273983
0.0028524
0.00298141
0.00308625
0.00312391
0.00306943
0.00296138
0.00283028
0.00270448
0.00259226
0.00249452
0.00239218
0.00226985
0.00211692
0.00192977
0.00171615
0.00148536
0.00127239
0.00112948
0.00131366
0.00148364
0.00171744
0.0019501
0.00214681
0.00229861
0.00241035
0.00249543
0.00256868
0.00264725
0.00274481
0.00286953
0.00303711
0.0032164
0.00335166
0.00339506
0.0033246
0.00319958
0.00305391
0.0029137
0.00279059
0.00268376
0.00257416
0.00244847
0.00229574
0.0021131
0.0018981
0.00166389
0.0014423
0.00127879
0.00118557
0.00130051
0.00151381
0.00175665
0.00197949
0.0021636
0.00230979
0.00242991
0.00254134
0.00265936
0.00280138
0.00297748
0.00320665
0.00343432
0.00359657
0.00364204
0.00355397
0.003414
0.00325714
0.00310494
0.0029736
0.0028571
0.00274217
0.00261401
0.00246285
0.00228282
0.00206991
0.00183661
0.00161001
0.00142824
0.00109396
0.0011374
0.00130792
0.00154335
0.00178252
0.00199463
0.00217408
0.00233003
0.00247923
0.00264021
0.00283109
0.00306673
0.00336768
0.00363605
0.00382055
0.00386449
0.00375941
0.0036082
0.00344339
0.00328232
0.00314492
0.00302015
0.00289997
0.00276943
0.00262011
0.0024416
0.00223297
0.00200419
0.00177581
0.00157837
0.00105701
0.00102876
0.00113516
0.00133716
0.00157481
0.00180511
0.00201338
0.00220406
0.00239244
0.00259762
0.00283873
0.00314219
0.0035094
0.00381983
0.00402203
0.00406173
0.00394319
0.00378545
0.00361578
0.00344967
0.00330716
0.00317593
0.00305074
0.00291713
0.00276857
0.00259261
0.00238863
0.00216521
0.00193835
0.00172846
0.00109699
0.00101184
0.00104013
0.00117904
0.00138673
0.00161577
0.00184205
0.00206248
0.00228883
0.00253934
0.00283195
0.0032087
0.00363384
0.00398293
0.0041988
0.00423324
0.00410726
0.00394856
0.0037772
0.00360969
0.00346172
0.00332672
0.00319688
0.00306139
0.00291208
0.0027382
0.00253873
0.00232128
0.00209506
0.00187775
0.00122694
0.00110585
0.00106171
0.00111805
0.00126404
0.00145845
0.00168113
0.00191941
0.00217805
0.00247191
0.00282024
0.00326744
0.00374308
0.00412233
0.0043483
0.00437876
0.00425278
0.00409918
0.00392947
0.00376356
0.00361276
0.00347448
0.00334199
0.00320498
0.00305366
0.00288094
0.00268552
0.00247266
0.00224652
0.00202515
0.00146399
0.00132218
0.0012284
0.00119534
0.00124064
0.00137571
0.00155939
0.00179374
0.00207206
0.00240233
0.00281188
0.00332116
0.0038302
0.00423904
0.00446753
0.00449741
0.00437966
0.00423736
0.00407289
0.00391106
0.00376059
0.00362125
0.00348783
0.00334996
0.0031959
0.00302348
0.00283138
0.0026194
0.00239297
0.00216895
0.00180129
0.00164963
0.0015214
0.00142136
0.00136894
0.00138753
0.00150836
0.00170796
0.00198445
0.0023441
0.00280882
0.00335677
0.00388554
0.00432418
0.00455189
0.00458691
0.00448583
0.00436074
0.00420554
0.00405006
0.00390209
0.00376559
0.00363353
0.00349702
0.00334162
0.00316862
0.0029768
0.00276296
0.00253481
0.00230678
0.00221032
0.002054
0.00190198
0.00175383
0.0016229
0.00154005
0.00154668
0.00167878
0.00193303
0.0023064
0.00280125
0.00336554
0.00391201
0.00436054
0.00459528
0.00464275
0.00456621
0.00446366
0.00432233
0.0041758
0.00403216
0.00389879
0.00377236
0.00364134
0.00349009
0.00331436
0.00311957
0.00290306
0.00267209
0.00243891
0.00265192
0.00249185
0.0023226
0.00214074
0.00195382
0.00178741
0.00168998
0.00171433
0.00190533
0.00227044
0.00277346
0.00335422
0.00390136
0.00434863
0.00459011
0.00465676
0.00461176
0.00453517
0.00441345
0.00427988
0.00414474
0.00401548
0.00389168
0.00376317
0.00362162
0.00345211
0.00325555
0.00303734
0.00280362
0.00256501
0.00308593
0.00292144
0.00273906
0.00253374
0.0023089
0.00208265
0.00189888
0.00182423
0.00192068
0.0022362
0.00273577
0.00329129
0.00382594
0.00427365
0.00452406
0.00461555
0.00460736
0.0045582
0.00446206
0.00434715
0.00422507
0.00410431
0.00398614
0.00386315
0.00372474
0.00356649
0.00337554
0.00315999
0.00292581
0.00268314
0.00347683
0.00330737
0.00311503
0.00289382
0.00264425
0.00237825
0.00213161
0.00196961
0.00196581
0.00221306
0.0026376
0.00316872
0.00369903
0.00412045
0.00437952
0.00449993
0.00453049
0.00450957
0.00444273
0.00435107
0.00424851
0.00414268
0.00403604
0.00392314
0.0037919
0.00364246
0.00346427
0.00325966
0.00303022
0.00278759
0.00379457
0.00362125
0.00342238
0.00319137
0.0029267
0.00263586
0.00234667
0.00211609
0.00202429
0.00215847
0.0025342
0.00300542
0.0034838
0.00387549
0.00413864
0.00429006
0.00435666
0.00436327
0.00432983
0.00426693
0.00418936
0.00410536
0.00401785
0.00392257
0.00380846
0.00367034
0.00351006
0.00331608
0.00309682
0.00286047
0.00401498
0.00384135
0.00364067
0.00340578
0.00313385
0.00282937
0.00251375
0.00223377
0.00206342
0.00207901
0.00235307
0.00276088
0.00318378
0.00354649
0.00381096
0.0039892
0.00408248
0.00411673
0.00411712
0.00408513
0.00403541
0.00397687
0.00391304
0.00384088
0.0037517
0.0036342
0.00349125
0.00332416
0.00312414
0.00290067
0.00412178
0.00395432
0.00375886
0.00352774
0.00325723
0.0029501
0.00262362
0.00231531
0.0020856
0.0020037
0.00214505
0.00246764
0.00284418
0.00318283
0.00344467
0.0036404
0.00374849
0.00380461
0.0038321
0.00382588
0.00379972
0.00376304
0.0037202
0.00366956
0.00360446
0.00351544
0.00339464
0.00324717
0.00307408
0.00287458
0.00411316
0.00396179
0.00378209
0.00356619
0.0033097
0.00301552
0.00269929
0.00239157
0.00213889
0.00199798
0.00202624
0.00224438
0.00256041
0.00287726
0.00312708
0.00332184
0.00343287
0.00349852
0.00353952
0.00354704
0.00353324
0.00350738
0.00347467
0.00343491
0.00338355
0.00331311
0.00321649
0.00308946
0.00293114
0.00274958
0.00401195
0.00389067
0.00374238
0.00355776
0.00333265
0.00307221
0.00279254
0.00251855
0.00228431
0.00212764
0.0020887
0.00221386
0.00244809
0.0027204
0.00294512
0.00311686
0.0032164
0.00327882
0.00331868
0.00332748
0.00331498
0.00328923
0.00325535
0.00321418