/*--------------------------------*- C++ -*----------------------------------*\
| =========                 |                                                 |
| \\      /  F ield         | OpenFOAM: The Open Source CFD Toolbox           |
|  \\    /   O peration     | Version:  5.0                                   |
|   \\  /    A nd           | Web:      www.OpenFOAM.org                      |
|    \\/     M anipulation  |                                                 |
\*---------------------------------------------------------------------------*/
FoamFile
{
    version     2.0;
    format      ascii;
    class       volScalarField;
    location    "1150/porous";
    object      T;
}
// * * * * * * * * * * * * * * * * * * * * * * * * * * * * * * * * * * * * * //

dimensions      [0 0 0 1 0 0 0];

internalField   nonuniform List<scalar> 
36000
(
400
400
400
400
399.999
399.583
399.206
398.855
398.521
398.199
397.886
397.579
397.277
396.98
396.686
396.396
396.11
395.826
395.545
395.266
394.99
394.715
394.439
394.163
393.885
393.609
393.334
393.061
392.791
392.526
392.265
392.009
391.762
391.527
391.311
391.833
392.186
392.455
392.674
392.86
400
400
400
400
399.999
399.633
399.301
398.994
398.704
398.428
398.161
397.902
397.65
397.403
397.16
396.922
396.688
396.457
396.23
396.006
395.784
395.564
395.344
395.124
394.903
394.683
394.465
394.25
394.037
393.827
393.622
393.422
393.228
393.043
392.869
393.212
393.454
393.64
393.788
393.919
400
400
400
400
399.999
399.639
399.316
399.018
398.739
398.475
398.222
397.978
397.741
397.511
397.287
397.068
396.854
396.644
396.439
396.238
396.04
395.844
395.648
395.452
395.257
395.063
394.871
394.681
394.495
394.313
394.134
393.961
393.795
393.636
393.488
393.804
394.031
394.206
394.346
394.467
400
400
400
400
399.999
399.639
399.316
399.019
398.741
398.479
398.228
397.987
397.753
397.527
397.308
397.094
396.886
396.683
396.484
396.29
396.1
395.911
395.724
395.536
395.348
395.163
394.979
394.799
394.621
394.448
394.279
394.116
393.959
393.81
393.671
393.982
394.207
394.38
394.522
394.641
400
400
400
400
399.999
399.639
399.316
399.019
398.742
398.479
398.229
397.988
397.756
397.531
397.313
397.1
396.894
396.692
396.496
396.304
396.116
395.931
395.745
395.559
395.374
395.191
395.011
394.833
394.658
394.488
394.322
394.162
394.009
393.863
393.727
394.036
394.261
394.434
394.576
394.696
400
400
400
400
399.999
399.638
399.315
399.018
398.74
398.477
398.227
397.986
397.753
397.528
397.31
397.098
396.892
396.691
396.496
396.305
396.118
395.933
395.748
395.563
395.379
395.196
395.016
394.839
394.665
394.496
394.331
394.172
394.019
393.875
393.74
394.049
394.273
394.447
394.588
394.708
400
400
400
400
399.999
399.638
399.315
399.018
398.741
398.478
398.227
397.987
397.755
397.53
397.312
397.101
396.895
396.694
396.499
396.31
396.123
395.939
395.754
395.569
395.384
395.202
395.023
394.846
394.672
394.503
394.338
394.18
394.027
393.883
393.748
394.057
394.281
394.454
394.596
394.716
400
400
400
400
399.999
399.638
399.315
399.018
398.741
398.479
398.228
397.987
397.756
397.531
397.314
397.102
396.897
396.697
396.502
396.313
396.127
395.942
395.757
395.572
395.388
395.206
395.026
394.85
394.676
394.507
394.342
394.184
394.031
393.887
393.752
394.061
394.284
394.458
394.599
394.719
400
400
400
400
399.999
399.639
399.316
399.02
398.743
398.481
398.231
397.991
397.759
397.536
397.319
397.108
396.903
396.704
396.51
396.32
396.134
395.949
395.764
395.579
395.396
395.214
395.034
394.858
394.685
394.515
394.351
394.192
394.039
393.895
393.76
394.068
394.292
394.465
394.606
394.726
400
400
400
400
399.999
399.639
399.317
399.021
398.745
398.484
398.234
397.994
397.763
397.54
397.324
397.113
396.909
396.71
396.517
396.327
396.14
395.954
395.77
395.585
395.402
395.22
395.041
394.865
394.692
394.522
394.358
394.198
394.046
393.901
393.765
394.074
394.297
394.47
394.611
394.731
400
400
400
400
399.999
399.64
399.319
399.024
398.748
398.487
398.238
397.999
397.769
397.546
397.331
397.121
396.918
396.72
396.525
396.334
396.146
395.961
395.776
395.593
395.41
395.229
395.05
394.874
394.701
394.532
394.367
394.207
394.054
393.909
393.772
394.081
394.304
394.477
394.618
394.738
400
400
400
400
399.999
399.64
399.32
399.026
398.751
398.491
398.242
398.003
397.773
397.551
397.337
397.128
396.925
396.727
396.532
396.339
396.149
395.963
395.78
395.597
395.416
395.235
395.057
394.881
394.708
394.539
394.374
394.214
394.061
393.914
393.777
394.085
394.309
394.481
394.623
394.742
400
400
400
400
399.999
399.642
399.322
399.029
398.754
398.494
398.246
398.008
397.778
397.556
397.342
397.134
396.932
396.733
396.537
396.343
396.152
395.966
395.783
395.601
395.421
395.241
395.064
394.888
394.715
394.546
394.381
394.221
394.067
393.92
393.78
394.089
394.313
394.486
394.627
394.746
400
400
400
400
399.999
399.643
399.324
399.031
398.757
398.497
398.249
398.01
397.781
397.559
397.345
397.138
396.935
396.736
396.538
396.344
396.153
395.966
395.783
395.603
395.424
395.245
395.068
394.893
394.72
394.551
394.386
394.225
394.071
393.922
393.781
394.09
394.314
394.487
394.629
394.748
400
400
400
400
399.999
399.643
399.325
399.033
398.759
398.5
398.251
398.013
397.783
397.561
397.347
397.139
396.936
396.737
396.539
396.344
396.152
395.965
395.783
395.604
395.425
395.248
395.071
394.896
394.724
394.555
394.389
394.229
394.073
393.924
393.782
394.091
394.315
394.489
394.63
394.75
400
400
400
400
399.999
399.646
399.329
399.037
398.763
398.503
398.254
398.015
397.785
397.562
397.347
397.139
396.936
396.736
396.539
396.344
396.152
395.966
395.783
395.605
395.427
395.25
395.074
394.899
394.727
394.557
394.391
394.23
394.074
393.922
393.778
394.089
394.313
394.487
394.628
394.748
400
400
400
400
399.999
399.647
399.33
399.038
398.765
398.504
398.255
398.016
397.785
397.561
397.346
397.137
396.934
396.734
396.537
396.343
396.152
395.965
395.783
395.604
395.427
395.25
395.074
394.899
394.727
394.557
394.391
394.228
394.071
393.92
393.774
394.085
394.31
394.484
394.625
394.745
400
400
400
400
399.999
399.648
399.332
399.041
398.767
398.506
398.257
398.017
397.785
397.561
397.344
397.134
396.931
396.732
396.536
396.342
396.152
395.966
395.785
395.605
395.427
395.249
395.073
394.898
394.725
394.555
394.388
394.225
394.068
393.915
393.769
394.08
394.305
394.479
394.621
394.741
400
400
400
400
399.999
399.649
399.334
399.043
398.769
398.508
398.258
398.017
397.785
397.56
397.342
397.132
396.927
396.729
396.534
396.341
396.152
395.967
395.785
395.604
395.425
395.246
395.069
394.894
394.721
394.55
394.383
394.219
394.061
393.907
393.76
394.072
394.298
394.472
394.614
394.735
400
400
400
400
399.999
399.65
399.335
399.044
398.77
398.509
398.258
398.017
397.784
397.559
397.341
397.129
396.924
396.726
396.532
396.341
396.153
395.968
395.785
395.603
395.422
395.243
395.065
394.889
394.715
394.544
394.376
394.212
394.053
393.899
393.752
394.064
394.291
394.465
394.608
394.728
400
400
400
400
399.999
399.651
399.336
399.045
398.771
398.509
398.259
398.017
397.784
397.558
397.339
397.127
396.921
396.722
396.529
396.339
396.152
395.966
395.782
395.598
395.416
395.236
395.058
394.882
394.707
394.536
394.367
394.203
394.043
393.888
393.74
394.054
394.28
394.456
394.599
394.719
400
400
400
400
399.999
399.651
399.337
399.046
398.771
398.51
398.259
398.017
397.784
397.557
397.338
397.125
396.919
396.72
396.527
396.338
396.151
395.965
395.779
395.595
395.412
395.231
395.052
394.876
394.701
394.529
394.36
394.195
394.035
393.879
393.731
394.046
394.273
394.449
394.592
394.713
400
400
400
400
399.999
399.652
399.337
399.046
398.771
398.51
398.259
398.017
397.783
397.556
397.336
397.123
396.917
396.718
396.525
396.335
396.148
395.961
395.774
395.589
395.406
395.225
395.045
394.868
394.693
394.521
394.351
394.186
394.025
393.87
393.721
394.037
394.264
394.44
394.584
394.705
400
400
400
400
399.999
399.652
399.338
399.047
398.772
398.511
398.26
398.018
397.783
397.557
397.337
397.124
396.917
396.718
396.525
396.335
396.147
395.959
395.772
395.587
395.403
395.222
395.042
394.865
394.689
394.517
394.347
394.182
394.021
393.865
393.716
394.032
394.26
394.436
394.58
394.701
400
400
400
400
399.999
399.652
399.338
399.047
398.773
398.511
398.26
398.017
397.783
397.556
397.336
397.122
396.916
396.716
396.523
396.332
396.143
395.954
395.767
395.582
395.398
395.216
395.036
394.858
394.683
394.51
394.34
394.174
394.012
393.856
393.707
394.023
394.251
394.428
394.572
394.693
400
400
400
400
399.999
399.653
399.339
399.048
398.774
398.513
398.262
398.019
397.785
397.558
397.338
397.124
396.917
396.717
396.523
396.331
396.141
395.952
395.764
395.578
395.393
395.211
395.031
394.852
394.676
394.502
394.332
394.165
394.002
393.845
393.695
394.011
394.24
394.416
394.56
394.681
400
400
400
400
399.999
399.653
399.339
399.048
398.773
398.511
398.26
398.016
397.781
397.553
397.331
397.117
396.909
396.707
396.51
396.316
396.123
395.932
395.742
395.553
395.367
395.182
394.999
394.818
394.639
394.463
394.29
394.12
393.954
393.793
393.64
393.958
394.187
394.363
394.506
394.628
400
400
400
400
399.999
399.653
399.339
399.046
398.77
398.506
398.251
398.005
397.766
397.534
397.308
397.088
396.874
396.666
396.462
396.261
396.061
395.862
395.665
395.469
395.275
395.082
394.89
394.701
394.514
394.329
394.146
393.967
393.792
393.621
393.459
393.782
394.012
394.19
394.332
394.454
400
400
400
400
399.999
399.646
399.323
399.021
398.733
398.457
398.189
397.928
397.673
397.423
397.178
396.939
396.705
396.476
396.25
396.026
395.803
395.581
395.36
395.14
394.92
394.702
394.486
394.27
394.057
393.845
393.636
393.43
393.227
393.03
392.84
393.19
393.436
393.624
393.775
393.907
400
400
400
400
399.999
399.598
399.23
398.882
398.549
398.227
397.912
397.602
397.298
396.997
396.701
396.41
396.124
395.842
395.563
395.285
395.007
394.73
394.454
394.178
393.903
393.629
393.356
393.085
392.816
392.548
392.283
392.02
391.763
391.512
391.274
391.805
392.164
392.435
392.657
392.844
400
400
400
400
399.999
399.779
399.528
399.259
398.981
398.697
398.412
398.126
397.84
397.556
397.272
396.99
396.71
396.431
396.154
395.879
395.605
395.333
395.06
394.786
394.512
394.238
393.965
393.693
393.424
393.157
392.894
392.636
392.383
392.141
391.912
392.159
392.395
392.605
392.791
392.954
400
400
400
400
400
399.81
399.598
399.373
399.141
398.905
398.669
398.434
398.2
397.968
397.738
397.51
397.285
397.062
396.841
396.622
396.405
396.19
395.975
395.76
395.545
395.331
395.117
394.905
394.695
394.487
394.283
394.082
393.886
393.696
393.514
393.629
393.75
393.867
393.974
394.075
400
400
400
400
400
399.815
399.609
399.392
399.17
398.946
398.723
398.502
398.284
398.069
397.857
397.648
397.442
397.24
397.041
396.844
396.651
396.459
396.268
396.078
395.889
395.7
395.512
395.327
395.143
394.962
394.785
394.611
394.442
394.279
394.124
394.225
394.334
394.44
394.538
394.63
400
400
400
400
400
399.814
399.609
399.392
399.171
398.949
398.728
398.51
398.295
398.084
397.876
397.672
397.472
397.276
397.083
396.893
396.707
396.523
396.34
396.157
395.976
395.795
395.616
395.439
395.265
395.093
394.925
394.761
394.601
394.448
394.301
394.402
394.51
394.615
394.712
394.803
400
400
400
400
400
399.814
399.609
399.392
399.171
398.95
398.729
398.512
398.297
398.087
397.88
397.678
397.479
397.284
397.093
396.906
396.722
396.54
396.36
396.18
396
395.823
395.646
395.472
395.3
395.131
394.966
394.805
394.649
394.499
394.356
394.456
394.564
394.669
394.767
394.858
400
400
400
400
400
399.814
399.608
399.391
399.17
398.947
398.727
398.509
398.294
398.084
397.877
397.675
397.476
397.282
397.091
396.905
396.722
396.541
396.361
396.182
396.003
395.826
395.65
395.477
395.306
395.138
394.974
394.813
394.658
394.509
394.367
394.468
394.575
394.68
394.779
394.87
400
400
400
400
400
399.814
399.608
399.391
399.17
398.948
398.727
398.509
398.295
398.085
397.879
397.676
397.478
397.284
397.094
396.908
396.726
396.545
396.366
396.186
396.008
395.831
395.656
395.483
395.312
395.144
394.98
394.82
394.666
394.517
394.375
394.475
394.583
394.688
394.786
394.877
400
400
400
400
400
399.814
399.608
399.391
399.17
398.947
398.727
398.509
398.295
398.085
397.879
397.676
397.478
397.285
397.095
396.91
396.728
396.547
396.368
396.188
396.01
395.833
395.658
395.485
395.315
395.147
394.983
394.823
394.668
394.52
394.377
394.478
394.586
394.691
394.789
394.88
400
400
400
400
400
399.814
399.608
399.392
399.171
398.949
398.729
398.511
398.298
398.088
397.882
397.681
397.483
397.29
397.101
396.916
396.734
396.553
396.374
396.195
396.017
395.84
395.665
395.492
395.322
395.154
394.99
394.831
394.676
394.527
394.385
394.485
394.593
394.698
394.796
394.887
400
400
400
400
400
399.814
399.608
399.392
399.172
398.95
398.73
398.513
398.3
398.091
397.885
397.684
397.487
397.295
397.106
396.921
396.738
396.558
396.378
396.199
396.022
395.845
395.671
395.498
395.328
395.16
394.996
394.836
394.681
394.532
394.39
394.49
394.598
394.702
394.8
394.891
400
400
400
400
400
399.815
399.61
399.394
399.174
398.953
398.733
398.517
398.304
398.095
397.891
397.69
397.494
397.302
397.114
396.928
396.744
396.564
396.384
396.206
396.029
395.853
395.678
395.506
395.336
395.168
395.004
394.845
394.689
394.54
394.397
394.497
394.605
394.709
394.807
394.898
400
400
400
400
400
399.815
399.61
399.395
399.175
398.955
398.736
398.519
398.307
398.099
397.895
397.695
397.5
397.308
397.119
396.932
396.748
396.567
396.387
396.21
396.033
395.858
395.684
395.511
395.342
395.174
395.01
394.85
394.695
394.545
394.401
394.502
394.609
394.714
394.811
394.902
400
400
400
400
400
399.815
399.611
399.397
399.178
398.957
398.739
398.523
398.311
398.103
397.899
397.7
397.505
397.313
397.124
396.936
396.751
396.569
396.39
396.213
396.037
395.863
395.689
395.517
395.348
395.181
395.017
394.857
394.701
394.551
394.406
394.506
394.613
394.718
394.816
394.906
400
400
400
400
400
399.816
399.612
399.398
399.179
398.959
398.741
398.525
398.313
398.105
397.902
397.703
397.508
397.316
397.126
396.938
396.752
396.57
396.391
396.214
396.039
395.865
395.692
395.521
395.352
395.185
395.021
394.861
394.705
394.553
394.408
394.508
394.615
394.72
394.818
394.908
400
400
400
400
400
399.816
399.613
399.399
399.181
398.961
398.743
398.527
398.315
398.107
397.903
397.704
397.509
397.317
397.126
396.938
396.752
396.57
396.391
396.215
396.04
395.867
395.695
395.524
395.355
395.188
395.024
394.864
394.707
394.556
394.409
394.509
394.617
394.721
394.819
394.91
400
400
400
400
400
399.817
399.615
399.402
399.183
398.964
398.745
398.529
398.317
398.108
397.904
397.705
397.509
397.317
397.126
396.938
396.753
396.57
396.391
396.216
396.041
395.868
395.696
395.526
395.357
395.19
395.026
394.865
394.708
394.555
394.407
394.507
394.615
394.719
394.817
394.908
400
400
400
400
400
399.818
399.616
399.403
399.185
398.965
398.746
398.53
398.317
398.108
397.904
397.704
397.508
397.315
397.125
396.937
396.752
396.57
396.391
396.215
396.041
395.868
395.696
395.526
395.357
395.19
395.026
394.864
394.707
394.553
394.405
394.505
394.612
394.717
394.815
394.906
400
400
400
400
400
399.819
399.617
399.404
399.186
398.967
398.748
398.531
398.318
398.108
397.903
397.703
397.506
397.314
397.124
396.937
396.752
396.57
396.392
396.216
396.041
395.868
395.696
395.525
395.356
395.189
395.024
394.862
394.704
394.55
394.401
394.501
394.608
394.713
394.811
394.902
400
400
400
400
400
399.819
399.618
399.406
399.188
398.968
398.749
398.532
398.318
398.108
397.902
397.701
397.504
397.312
397.122
396.935
396.751
396.57
396.392
396.215
396.04
395.866
395.694
395.522
395.353
395.185
395.02
394.857
394.699
394.544
394.393
394.494
394.601
394.706
394.804
394.896
400
400
400
400
400
399.82
399.619
399.407
399.189
398.969
398.75
398.533
398.319
398.108
397.902
397.7
397.503
397.31
397.121
396.935
396.752
396.571
396.392
396.215
396.039
395.864
395.691
395.519
395.349
395.181
395.015
394.852
394.693
394.537
394.387
394.487
394.595
394.7
394.799
394.89
400
400
400
400
400
399.82
399.62
399.408
399.19
398.97
398.75
398.533
398.318
398.108
397.901
397.698
397.5
397.307
397.118
396.933
396.75
396.569
396.39
396.212
396.035
395.859
395.685
395.513
395.343
395.174
395.008
394.844
394.684
394.528
394.377
394.478
394.586
394.691
394.79
394.881
400
400
400
400
400
399.82
399.62
399.408
399.19
398.97
398.751
398.534
398.319
398.108
397.901
397.698
397.5
397.307
397.118
396.933
396.75
396.569
396.389
396.21
396.032
395.856
395.682
395.509
395.338
395.169
395.002
394.838
394.678
394.522
394.37
394.471
394.579
394.685
394.784
394.876
400
400
400
400
400
399.82
399.621
399.408
399.191
398.971
398.751
398.533
398.319
398.107
397.9
397.697
397.498
397.305
397.116
396.931
396.748
396.566
396.385
396.206
396.028
395.851
395.676
395.503
395.332
395.162
394.995
394.831
394.67
394.514
394.362
394.463
394.571
394.677
394.776
394.868
400
400
400
400
400
399.821
399.621
399.409
399.192
398.972
398.753
398.535
398.32
398.109
397.902
397.699
397.5
397.306
397.117
396.932
396.748
396.566
396.385
396.205
396.027
395.85
395.675
395.501
395.33
395.16
394.993
394.828
394.667
394.51
394.358
394.459
394.568
394.673
394.773
394.864
400
400
400
400
400
399.821
399.621
399.41
399.192
398.972
398.753
398.535
398.32
398.109
397.901
397.698
397.499
397.305
397.116
396.93
396.746
396.563
396.381
396.201
396.022
395.845
395.67
395.496
395.324
395.154
394.986
394.821
394.66
394.503
394.35
394.451
394.56
394.666
394.765
394.857
400
400
400
400
400
399.821
399.622
399.411
399.194
398.975
398.755
398.538
398.323
398.112
397.904
397.7
397.501
397.307
397.117
396.93
396.745
396.562
396.38
396.199
396.02
395.842
395.666
395.491
395.318
395.148
394.979
394.814
394.651
394.493
394.339
394.44
394.549
394.654
394.753
394.845
400
400
400
400
400
399.821
399.622
399.411
399.193
398.973
398.754
398.535
398.32
398.107
397.899
397.694
397.493
397.298
397.106
396.916
396.729
396.543
396.359
396.176
395.994
395.814
395.635
395.458
395.283
395.109
394.938
394.77
394.604
394.443
394.286
394.387
394.495
394.601
394.7
394.791
400
400
400
400
400
399.822
399.622
399.41
399.191
398.969
398.747
398.526
398.307
398.09
397.877
397.667
397.462
397.26
397.061
396.865
396.671
396.478
396.286
396.095
395.906
395.718
395.531
395.345
395.161
394.979
394.799
394.621
394.446
394.275
394.109
394.211
394.321
394.428
394.526
394.619
400
400
400
400
400
399.817
399.611
399.39
399.161
398.927
398.692
398.456
398.221
397.987
397.756
397.527
397.302
397.079
396.859
396.641
396.423
396.207
395.991
395.776
395.562
395.348
395.136
394.924
394.714
394.505
394.298
394.093
393.891
393.693
393.5
393.615
393.737
393.855
393.963
394.064
400
400
400
400
399.999
399.787
399.542
399.278
399.002
398.719
398.434
398.147
397.86
397.573
397.288
397.005
396.724
396.446
396.171
395.896
395.622
395.348
395.075
394.801
394.529
394.257
393.985
393.715
393.446
393.178
392.913
392.649
392.389
392.135
391.889
392.138
392.375
392.588
392.775
392.939
400
400
400
400
400
399.861
399.702
399.523
399.328
399.119
398.899
398.67
398.435
398.193
397.947
397.698
397.447
397.193
396.939
396.683
396.427
396.169
395.911
395.651
395.39
395.128
394.865
394.603
394.341
394.081
393.823
393.568
393.317
393.073
392.838
392.912
393.006
393.109
393.216
393.314
400
400
400
400
400
399.881
399.747
399.6
399.441
399.274
399.099
398.918
398.733
398.544
398.352
398.159
397.964
397.768
397.572
397.375
397.179
396.982
396.785
396.587
396.389
396.19
395.991
395.792
395.595
395.398
395.203
395.01
394.82
394.635
394.454
394.455
394.469
394.495
394.527
394.562
400
400
400
400
400
399.884
399.754
399.613
399.462
399.304
399.14
398.972
398.8
398.627
398.452
398.276
398.1
397.924
397.749
397.574
397.4
397.227
397.053
396.88
396.706
396.533
396.36
396.187
396.016
395.846
395.678
395.513
395.35
395.192
395.038
395.04
395.053
395.075
395.101
395.132
400
400
400
400
400
399.883
399.754
399.613
399.463
399.306
399.144
398.978
398.81
398.639
398.468
398.297
398.126
397.956
397.786
397.618
397.451
397.284
397.118
396.952
396.786
396.621
396.456
396.292
396.129
395.969
395.81
395.654
395.5
395.351
395.206
395.211
395.226
395.249
395.277
395.309
400
400
400
400
400
399.883
399.754
399.613
399.463
399.307
399.145
398.98
398.812
398.642
398.472
398.302
398.133
397.964
397.796
397.629
397.464
397.3
397.136
396.972
396.809
396.646
396.484
396.323
396.163
396.005
395.849
395.696
395.546
395.4
395.259
395.265
395.28
395.304
395.332
395.365
400
400
400
400
400
399.883
399.753
399.612
399.462
399.305
399.143
398.977
398.809
398.639
398.469
398.299
398.13
397.961
397.794
397.628
397.463
397.3
397.136
396.973
396.81
396.648
396.487
396.326
396.167
396.01
395.855
395.703
395.554
395.409
395.268
395.275
395.291
395.315
395.343
395.377
400
400
400
400
400
399.883
399.753
399.612
399.462
399.305
399.143
398.977
398.809
398.64
398.47
398.3
398.131
397.962
397.795
397.63
397.466
397.303
397.14
396.977
396.814
396.652
396.491
396.331
396.172
396.015
395.861
395.709
395.56
395.415
395.275
395.282
395.298
395.322
395.351
395.384
400
400
400
400
400
399.883
399.753
399.612
399.462
399.305
399.142
398.977
398.809
398.639
398.469
398.299
398.13
397.962
397.795
397.63
397.466
397.303
397.14
396.977
396.814
396.653
396.492
396.332
396.173
396.016
395.862
395.71
395.561
395.417
395.277
395.283
395.299
395.323
395.352
395.386
400
400
400
400
400
399.883
399.753
399.613
399.463
399.306
399.144
398.978
398.81
398.641
398.472
398.302
398.133
397.966
397.799
397.634
397.47
397.307
397.145
396.982
396.82
396.658
396.497
396.337
396.179
396.022
395.868
395.716
395.568
395.423
395.283
395.289
395.306
395.329
395.358
395.392
400
400
400
400
400
399.883
399.754
399.613
399.463
399.306
399.144
398.979
398.812
398.643
398.474
398.304
398.136
397.968
397.802
397.637
397.473
397.31
397.148
396.985
396.823
396.661
396.501
396.341
396.183
396.026
395.872
395.72
395.572
395.427
395.287
395.293
395.309
395.333
395.362
395.396
400
400
400
400
400
399.884
399.754
399.614
399.465
399.308
399.147
398.982
398.814
398.646
398.477
398.309
398.141
397.974
397.808
397.643
397.479
397.315
397.153
396.991
396.829
396.668
396.507
396.348
396.19
396.033
395.879
395.727
395.579
395.434
395.293
395.299
395.316
395.339
395.368
395.402
400
400
400
400
400
399.884
399.755
399.615
399.465
399.309
399.148
398.983
398.816
398.648
398.48
398.312
398.144
397.978
397.811
397.646
397.481
397.318
397.155
396.994
396.832
396.671
396.511
396.352
396.194
396.038
395.884
395.732
395.583
395.438
395.297
395.303
395.32
395.343
395.372
395.406
400
400
400
400
400
399.884
399.756
399.616
399.467
399.311
399.15
398.986
398.819
398.651
398.483
398.316
398.148
397.982
397.815
397.649
397.484
397.321
397.158
396.997
396.836
396.675
396.516
396.357
396.199
396.043
395.889
395.737
395.588
395.443
395.301
395.308
395.324
395.347
395.376
395.41
400
400
400
400
400
399.885
399.756
399.617
399.468
399.312
399.152
398.987
398.821
398.653
398.485
398.318
398.15
397.984
397.817
397.651
397.485
397.321
397.159
396.998
396.837
396.677
396.518
396.359
396.202
396.046
395.892
395.74
395.591
395.446
395.303
395.309
395.326
395.349
395.378
395.412
400
400
400
400
400
399.885
399.757
399.617
399.469
399.313
399.153
398.988
398.822
398.654
398.486
398.319
398.151
397.985
397.818
397.651
397.486
397.322
397.159
396.998
396.838
396.678
396.519
396.361
396.204
396.048
395.894
395.743
395.594
395.448
395.305
395.311
395.327
395.351
395.38
395.413
400
400
400
400
400
399.886
399.758
399.619
399.471
399.315
399.155
398.99
398.824
398.656
398.487
398.32
398.152
397.985
397.818
397.652
397.486
397.322
397.16
396.999
396.839
396.68
396.521
396.363
396.206
396.05
395.896
395.744
395.595
395.448
395.304
395.31
395.326
395.35
395.379
395.412
400
400
400
400
400
399.886
399.759
399.62
399.472
399.316
399.155
398.991
398.824
398.656
398.487
398.319
398.151
397.984
397.817
397.651
397.486
397.322
397.159
396.998
396.839
396.679
396.521
396.363
396.206
396.05
395.896
395.743
395.594
395.446
395.302
395.308
395.324
395.348
395.377
395.41
400
400
400
400
400
399.886
399.759
399.621
399.473
399.317
399.157
398.992
398.825
398.656
398.487
398.319
398.151
397.984
397.817
397.651
397.486
397.322
397.16
396.999
396.839
396.679
396.521
396.362
396.205
396.049
395.895
395.742
395.592
395.445
395.3
395.306
395.322
395.345
395.374
395.407
400
400
400
400
400
399.887
399.76
399.622
399.474
399.318
399.158
398.993
398.825
398.657
398.487
398.318
398.15
397.982
397.816
397.65
397.485
397.322
397.16
396.999
396.838
396.678
396.519
396.36
396.203
396.047
395.892
395.739
395.588
395.44
395.294
395.3
395.316
395.34
395.368
395.402
400
400
400
400
400
399.887
399.761
399.622
399.474
399.319
399.158
398.993
398.826
398.657
398.487
398.318
398.149
397.982
397.815
397.65
397.486
397.323
397.16
396.999
396.838
396.677
396.518
396.359
396.201
396.044
395.889
395.735
395.584
395.436
395.29
395.296
395.312
395.335
395.364
395.397
400
400
400
400
400
399.887
399.761
399.623
399.475
399.32
399.159
398.994
398.826
398.657
398.487
398.317
398.148
397.98
397.814
397.649
397.485
397.321
397.159
396.997
396.835
396.674
396.514
396.355
396.196
396.039
395.883
395.73
395.578
395.429
395.283
395.288
395.304
395.328
395.356
395.39
400
400
400
400
400
399.887
399.761
399.623
399.476
399.32
399.159
398.994
398.827
398.658
398.488
398.318
398.148
397.98
397.814
397.649
397.485
397.322
397.159
396.996
396.834
396.673
396.512
396.353
396.194
396.036
395.88
395.726
395.574
395.425
395.278
395.284
395.3
395.323
395.352
395.385
400
400
400
400
400
399.887
399.761
399.623
399.476
399.32
399.159
398.994
398.827
398.657
398.487
398.317
398.147
397.979
397.813
397.648
397.484
397.32
397.156
396.993
396.831
396.669
396.508
396.348
396.189
396.031
395.875
395.72
395.568
395.418
395.272
395.277
395.293
395.317
395.345
395.379
400
400
400
400
400
399.888
399.762
399.624
399.477
399.322
399.161
398.996
398.828
398.659
398.489
398.319
398.15
397.982
397.815
397.65
397.486
397.321
397.158
396.994
396.832
396.67
396.509
396.348
396.189
396.031
395.874
395.72
395.567
395.417
395.27
395.276
395.291
395.315
395.343
395.377
400
400
400
400
400
399.888
399.762
399.624
399.477
399.322
399.161
398.996
398.828
398.659
398.489
398.319
398.149
397.981
397.814
397.649
397.484
397.319
397.155
396.991
396.828
396.666
396.505
396.344
396.185
396.026
395.869
395.714
395.561
395.41
395.263
395.269
395.284
395.308
395.336
395.369
400
400
400
400
400
399.888
399.762
399.625
399.478
399.324
399.163
398.999
398.831
398.662
398.492
398.321
398.152
397.983
397.816
397.65
397.485
397.32
397.155
396.991
396.827
396.664
396.502
396.341
396.18
396.021
395.864
395.707
395.553
395.402
395.254
395.259
395.274
395.297
395.325
395.358
400
400
400
400
400
399.888
399.762
399.625
399.478
399.323
399.162
398.997
398.828
398.658
398.487
398.315
398.144
397.975
397.806
397.638
397.47
397.303
397.136
396.969
396.803
396.638
396.473
396.309
396.146
395.985
395.824
395.665
395.508
395.353
395.202
395.206
395.22
395.242
395.27
395.302
400
400
400
400
400
399.888
399.762
399.624
399.476
399.32
399.157
398.989
398.818
398.644
398.469
398.293
398.117
397.942
397.767
397.592
397.418
397.244
397.07
396.896
396.722
396.549
396.376
396.204
396.033
395.862
395.693
395.525
395.358
395.195
395.034
395.035
395.047
395.069
395.095
395.126
400
400
400
400
400
399.885
399.755
399.611
399.455
399.289
399.115
398.934
398.749
398.56
398.367
398.174
397.979
397.783
397.588
397.392
397.195
396.998
396.8
396.602
396.404
396.206
396.007
395.809
395.611
395.414
395.218
395.023
394.829
394.638
394.45
394.45
394.464
394.489
394.52
394.555
400
400
400
400
400
399.866
399.711
399.535
399.342
399.135
398.915
398.687
398.45
398.208
397.962
397.712
397.46
397.207
396.953
396.698
396.441
396.184
395.925
395.665
395.405
395.144
394.883
394.622
394.361
394.1
393.841
393.583
393.327
393.074
392.827
392.9
392.994
393.097
393.204
393.302
400
400
400
400
400
399.894
399.776
399.646
399.505
399.353
399.191
399.019
398.839
398.65
398.455
398.253
398.045
397.833
397.616
397.395
397.172
396.945
396.714
396.481
396.245
396.006
395.765
395.523
395.281
395.038
394.795
394.553
394.314
394.079
393.849
393.846
393.856
393.877
393.908
393.935
400
400
400
400
400
399.908
399.808
399.701
399.587
399.465
399.338
399.204
399.066
398.923
398.775
398.623
398.469
398.311
398.151
397.988
397.824
397.658
397.489
397.319
397.147
396.973
396.798
396.623
396.447
396.271
396.095
395.92
395.746
395.575
395.407
395.37
395.339
395.316
395.297
395.281
400
400
400
400
400
399.91
399.813
399.71
399.601
399.487
399.367
399.244
399.116
398.985
398.852
398.715
398.577
398.437
398.295
398.153
398.009
397.864
397.718
397.571
397.422
397.273
397.123
396.973
396.823
396.673
396.524
396.376
396.229
396.085
395.943
395.915
395.891
395.872
395.856
395.845
400
400
400
400
400
399.91
399.813
399.71
399.602
399.488
399.371
399.249
399.124
398.995
398.865
398.732
398.598
398.463
398.326
398.189
398.051
397.913
397.774
397.633
397.492
397.35
397.208
397.066
396.924
396.783
396.642
396.503
396.366
396.231
396.098
396.074
396.054
396.038
396.026
396.018
400
400
400
400
400
399.91
399.813
399.71
399.602
399.489
399.371
399.25
399.125
398.998
398.868
398.737
398.604
398.469
398.334
398.199
398.063
397.927
397.789
397.651
397.512
397.373
397.233
397.094
396.955
396.816
396.679
396.542
396.408
396.276
396.147
396.125
396.106
396.092
396.081
396.075
400
400
400
400
400
399.91
399.813
399.71
399.601
399.488
399.37
399.248
399.123
398.996
398.866
398.734
398.601
398.467
398.333
398.197
398.062
397.926
397.789
397.651
397.513
397.374
397.235
397.096
396.958
396.82
396.683
396.548
396.415
396.284
396.155
396.134
396.116
396.102
396.091
396.087
400
400
400
400
400
399.91
399.813
399.71
399.601
399.488
399.37
399.248
399.123
398.996
398.866
398.735
398.602
398.468
398.334
398.199
398.064
397.928
397.791
397.654
397.516
397.377
397.238
397.1
396.962
396.824
396.688
396.553
396.42
396.289
396.161
396.139
396.122
396.108
396.098
396.093
400
400
400
400
400
399.91
399.813
399.71
399.601
399.488
399.37
399.248
399.123
398.995
398.866
398.734
398.601
398.467
398.333
398.199
398.063
397.928
397.791
397.654
397.515
397.377
397.238
397.1
396.962
396.824
396.688
396.553
396.42
396.289
396.161
396.14
396.122
396.108
396.098
396.094