/*--------------------------------*- C++ -*----------------------------------*\
| =========                 |                                                 |
| \\      /  F ield         | OpenFOAM: The Open Source CFD Toolbox           |
|  \\    /   O peration     | Version:  5.0                                   |
|   \\  /    A nd           | Web:      www.OpenFOAM.org                      |
|    \\/     M anipulation  |                                                 |
\*---------------------------------------------------------------------------*/
FoamFile
{
    version     2.0;
    format      ascii;
    class       volScalarField;
    location    "1050/air";
    object      alphat;
}
// * * * * * * * * * * * * * * * * * * * * * * * * * * * * * * * * * * * * * //

dimensions      [1 -1 -1 0 0 0 0];

internalField   nonuniform List<scalar> 
243000
(
0.000139542
0.000148598
0.000148987
0.000147022
0.000143446
0.000138847
0.000133662
0.000128175
0.000122563
0.000116981
0.000111528
0.000106397
0.000101796
9.81238e-05
9.56265e-05
9.44806e-05
9.41778e-05
9.41093e-05
9.39143e-05
9.35221e-05
9.29668e-05
9.23273e-05
9.16953e-05
9.1173e-05
9.09108e-05
9.0415e-05
8.84809e-05
8.44747e-05
0.000375528
9.48341e-05
0.000617259
0.000676838
0.000700193
0.000712717
0.000717135
0.000716011
0.000710855
0.000702548
0.000691696
0.000678923
0.00066487
0.000650796
0.000637725
0.00062764
0.000621342
0.000618517
0.000614635
0.000606613
0.000594281
0.000578767
0.000561185
0.000542372
0.000522812
0.000503299
0.000485322
0.000468175
0.000445817
0.000406263
0.000371033
0.000388557
0.000653888
0.000723974
0.000752257
0.000768584
0.000775214
0.000775481
0.000771304
0.000763824
0.000753864
0.0007423
0.000729863
0.000717896
0.000707359
0.000700123
0.000696583
0.000695659
0.000691902
0.000682215
0.000667074
0.000648242
0.000627215
0.000605001
0.000582067
0.000558963
0.000536927
0.000516292
0.000493074
0.000459388
0.000419558
0.000399087
0.000638903
0.000726876
0.000769721
0.000793889
0.000804993
0.000808955
0.000807597
0.000802621
0.000795139
0.000786252
0.000776763
0.000768065
0.000761037
0.000757424
0.000757156
0.000758488
0.000755377
0.000744847
0.000727816
0.000706576
0.000682921
0.000658026
0.000632392
0.000606427
0.000581138
0.000557148
0.000531988
0.000500306
0.000461961
0.00043266
0.000600694
0.00070032
0.000758446
0.000793315
0.000813296
0.000823637
0.000826785
0.000825734
0.000822016
0.000816953
0.000811446
0.000806877
0.000804008
0.000804426
0.000807619
0.000811169
0.000808834
0.000797879
0.000779595
0.000756636
0.00073102
0.000704069
0.000676332
0.000648147
0.000620371
0.000593698
0.000566352
0.00053523
0.000498615
0.000465782
0.000563188
0.000660891
0.000726562
0.000774413
0.000804488
0.000822508
0.000832413
0.000836949
0.000838237
0.000838002
0.000837321
0.000837552
0.000839309
0.000844014
0.000850637
0.000856263
0.000854699
0.000843549
0.000824423
0.00080024
0.000773181
0.000744668
0.000715321
0.000685446
0.000655787
0.000627038
0.000597624
0.000566258
0.000530656
0.00049581
0.000528257
0.00061724
0.000689829
0.000742706
0.00078201
0.000809236
0.000827095
0.000838458
0.000846154
0.000851711
0.000856603
0.000862208
0.000868933
0.000878018
0.000887941
0.000895464
0.000894617
0.000883412
0.000863737
0.000838689
0.000810573
0.000780899
0.000750335
0.000719181
0.000688093
0.000657725
0.000626725
0.000594574
0.000559355
0.000523447
0.000518705
0.000569727
0.000648586
0.000709133
0.000753862
0.000786676
0.000812805
0.000832128
0.00084703
0.000859619
0.000870821
0.000882274
0.000894208
0.000907685
0.000920724
0.00092995
0.000929741
0.000918583
0.000898571
0.000872934
0.000844057
0.000813534
0.000782066
0.000749953
0.000717783
0.000686157
0.00065395
0.000620839
0.000585635
0.000549258
0.000543862
0.000542547
0.000604137
0.000671501
0.000723917
0.000762519
0.00079243
0.000819449
0.000842496
0.000863115
0.000881061
0.000898784
0.000916082
0.000933902
0.000949833
0.000960558
0.000960924
0.000949866
0.000929682
0.000903668
0.000874263
0.000843125
0.000811008
0.00077821
0.000745241
0.000712645
0.000679501
0.000645433
0.000610069
0.000573567
0.000578171
0.000559459
0.000571331
0.000630686
0.000690722
0.000736874
0.000772246
0.000802583
0.000833551
0.000862316
0.000888077
0.000912482
0.000935261
0.000957319
0.000975877
0.000987913
0.000988783
0.000977879
0.000957641
0.000931414
0.000901661
0.000870107
0.000837548
0.000804292
0.000770763
0.000737446
0.000703576
0.000668613
0.000633026
0.000596509
0.000614601
0.000595005
0.000571904
0.00059531
0.000654606
0.000708805
0.000751232
0.000786506
0.000821608
0.000858798
0.000892869
0.000923964
0.000952265
0.000978389
0.000999311
0.00101248
0.00101378
0.00100308
0.000982899
0.000956585
0.000926631
0.000894805
0.000861971
0.000828446
0.000794577
0.000760754
0.00072633
0.000690558
0.000654731
0.000618181
0.000651167
0.000633963
0.000606815
0.000585427
0.000620959
0.000678452
0.000728782
0.00077027
0.000809373
0.00085318
0.00089563
0.000933725
0.000967489
0.000997444
0.00102048
0.00103462
0.00103627
0.00102583
0.00100579
0.000979506
0.000949469
0.000917498
0.000884509
0.000850849
0.000816823
0.000782688
0.000747874
0.000711396
0.000675375
0.000638728
0.000687517
0.000672544
0.00064719
0.000613736
0.000603044
0.000648653
0.00070488
0.000753504
0.000797969
0.000846121
0.000896909
0.000942153
0.000981229
0.00101474
0.00103964
0.00105458
0.00105653
0.00104637
0.00102657
0.00100042
0.000970413
0.000938409
0.000905368
0.000871682
0.00083763
0.00080335
0.000768306
0.00073126
0.00069503
0.000658264
0.000723696
0.000710024
0.0006868
0.000652391
0.000612744
0.000626528
0.00068072
0.000736241
0.000786925
0.000838666
0.000897173
0.000949561
0.000993708
0.00103046
0.00105697
0.00107257
0.00107478
0.00106493
0.00104543
0.00101951
0.000989648
0.000957717
0.000924727
0.000891127
0.000857183
0.000822896
0.000787766
0.000750511
0.00071393
0.000676996
0.000759817
0.000746567
0.000724657
0.000691714
0.000647543
0.000620921
0.000659255
0.000719005
0.000776161
0.00083238
0.000896816
0.000956269
0.00100507
0.00104472
0.00107261
0.00108875
0.00109118
0.00108165
0.00106252
0.00103694
0.00100732
0.000975575
0.000942753
0.000909363
0.000875641
0.000841469
0.000806376
0.000769107
0.000732186
0.000695124
0.000795941
0.000782423
0.000761008
0.000729341
0.000684998
0.000635491
0.000645073
0.000702524
0.000765724
0.000826967
0.000896146
0.000962231
0.00101539
0.00105759
0.00108663
0.0011032
0.00110586
0.00109667
0.00107796
0.00105279
0.00102354
0.000992109
0.000959586
0.000926532
0.000893132
0.00085919
0.00082422
0.000787044
0.000749913
0.000712774
0.000832065
0.000817764
0.000796195
0.000765138
0.000721565
0.000664861
0.000641607
0.000688258
0.000755818
0.000822273
0.000895274
0.000967535
0.00102467
0.00106908
0.00109907
0.00111601
0.00111891
0.00111007
0.00109184
0.00106717
0.00103842
0.00100743
0.00097534
0.000942735
0.000909765
0.000876151
0.000841412
0.000804451
0.000767187
0.000730027
0.000868173
0.000852686
0.000830477
0.000799451
0.000756604
0.000700001
0.000652188
0.000678226
0.000746782
0.000818223
0.000894232
0.000972153
0.00103285
0.00107918
0.00110995
0.00112721
0.00113038
0.00112194
0.00110423
0.00108016
0.00105203
0.00102162
0.000990099
0.000958061
0.000925627
0.000892469
0.000858081
0.000821424
0.000784092
0.000746965
0.0009042
0.000887233
0.000864027
0.000832574
0.000790046
0.000734105
0.000673326
0.000673851
0.000739045
0.000814779
0.000893029
0.000975997
0.00103985
0.0010878
0.00111923
0.0011368
0.00114031
0.00113232
0.00111525
0.00109187
0.00106446
0.00103476
0.00100393
0.00097258
0.000940807
0.000908239
0.000874331
0.000838069
0.000800718
0.000763686
0.000940144
0.000921445
0.000896967
0.000864738
0.000822122
0.000766657
0.000699984
0.000675961
0.00073308
0.000811882
0.000891893
0.000978941
0.00104562
0.00109487
0.00112688
0.0011448
0.00114869
0.00114129
0.00112498
0.0011024
0.0010758
0.00104693
0.00101692
0.000986376
0.000955385
0.000923558
0.000890278
0.000854534
0.000817184
0.000780288
0.000976001
0.000955398
0.000929432
0.000896171
0.000853182
0.000798426
0.000728611
0.000685479
0.00072942
0.000809522
0.000891199
0.00098084
0.00104989
0.00110025
0.00113281
0.00115115
0.00115556
0.00114889
0.00113347
0.00111182
0.00108614
0.00105823
0.00102916
0.00099955
0.000969477
0.000938541
0.000906067
0.000871031
0.000833652
0.000796882
0.00101214
0.000989363
0.000961677
0.000927203
0.000883669
0.000828574
0.000757112
0.000699813
0.000728176
0.000807718
0.00089074
0.000981301
0.00105232
0.00110381
0.00113689
0.00115576
0.00116085
0.00115507
0.00114073
0.00112017
0.00109556
0.00106874
0.00104077
0.00101223
0.000983209
0.00095332
0.000921871
0.000887752
0.000850311
0.000813596
0.00104929
0.00102386
0.000994209
0.000958553
0.000915766
0.000858652
0.000785057
0.000717443
0.000729402
0.000806696
0.000890635
0.000980188
0.00105219
0.00110485
0.00113873
0.00115832
0.00116428
0.00115966
0.00114661
0.00112737
0.00110405
0.00107851
0.00105184
0.00102454
0.000996733
0.00096806
0.000937838
0.000904853
0.000867494
0.000830657
0.00108569
0.00105985
0.00102847
0.000993012
0.000947714
0.000888056
0.000812081
0.000737067
0.000733535
0.000806804
0.000891018
0.000977469
0.00104942
0.00110294
0.00113759
0.00115804
0.00116512
0.00116198
0.00115062
0.00113297
0.00111125
0.00108731
0.00106223
0.00103647
0.00101013
0.000982892
0.000954085
0.000922427
0.000885825
0.000848488
0.00112061
0.00109669
0.00106561
0.00102659
0.00097843
0.000916622
0.000838532
0.000757839
0.00074128
0.00080893
0.000892707
0.000975347
0.00104403
0.00109721
0.00113225
0.00115355
0.00116196
0.00116063
0.00115123
0.00113576
0.0011161
0.00109419
0.0010711
0.00104728
0.00102284
0.000997433
0.000970324
0.000940128
0.000904519
0.000866943
0.0011512
0.00112668
0.0010942
0.0010557
0.00100753
0.00094529
0.000866198
0.0007817
0.000754251
0.000815942
0.000898759
0.000977666
0.00104245
0.0010925
0.0011264
0.00114758
0.00115723
0.00115779
0.00115067
0.00113762
0.00112023
0.0011
0.00107809
0.0010556
0.00103334
0.00101017
0.00098514
0.000956694
0.000922473
0.000886136
0.00117381
0.00115066
0.0011222
0.00108632
0.00103998
0.000979273
0.00090151
0.000816722
0.000781119
0.00083747
0.000918429
0.000993588
0.00105439
0.00110117
0.00113367
0.00115434
0.00116459
0.00116657
0.00116138
0.00115039
0.00113496
0.0011164
0.00109577
0.00107402
0.00105184
0.00102885
0.00100436
0.000977368
0.00094613
0.000910829
0.00121248
0.00119026
0.00116361
0.00113057
0.00108844
0.00103379
0.000964519
0.000889138
0.000852826
0.000901741
0.000977378
0.00104638
0.00110141
0.00114351
0.00117291
0.00119147
0.00120083
0.00120306
0.00119879
0.00118909
0.00117507
0.00115784
0.00113836
0.00111737
0.00109541
0.0010724
0.00104786
0.00102106
0.000990406
0.000954569
0.00128957
0.00127212
0.00125274
0.00123017
0.00120243
0.00116722
0.00112366
0.00107856
0.00105847
0.00109299
0.00115004
0.00120256
0.00124383
0.0012749
0.00129601
0.00130845
0.00131384
0.00131394
0.00130893
0.00129964
0.00128674
0.00127106
0.00125331
0.00123393
0.00121323
0.00119072
0.0011659
0.00113877
0.00110854
0.00107348
0.00155817
0.00155796
0.00155777
0.0015563
0.00155226
0.0015446
0.0015342
0.0015249
0.0015235
0.00152979
0.00154443
0.00156017
0.00157257
0.00158166
0.00158632
0.00158883
0.00158887
0.0015879
0.00158552
0.00158257
0.00157888
0.00157491
0.00157073
0.00156643
0.0015617
0.00155276
0.00153857
0.00152261
0.00150762
0.00149036
0.000172724
0.000184256
0.000186334
0.00018481
0.0001811
0.000176079
0.000170278
0.000164059
0.000157657
0.000151324
0.000145234
0.00013965
0.000134723
0.000130761
0.000127764
0.000125551
0.000123329
0.000120598
0.000117259
0.000113338
0.000108799
0.00010353
9.75371e-05
9.15995e-05
8.72646e-05
8.51913e-05
0.000374882
0.000387808
9.43357e-05
0.000104624
0.000668835
0.000769976
0.000776397
0.000753538
0.000721156
0.000686069
0.000652188
0.000621525
0.00059503
0.000573319
0.000555681
0.00054209
0.000530513
0.000520563
0.000507771
0.000489081
0.000459224
0.000423872
0.000392014
0.000366592
0.000346648
0.000329587
0.000312381
0.000295387
0.000284151
0.000295271
0.00034379
0.000357861
0.000375693
0.000438492
0.00109411
0.0012408
0.00129713
0.00129909
0.00127601
0.0012399
0.00120045
0.00116335
0.00113163
0.00110711
0.00108843
0.00107475
0.00106131
0.00104638
0.00102233
0.000983092
0.000919285
0.000843939
0.00077313
0.000714537
0.000668982
0.00063223
0.000594275
0.000556085
0.000528336
0.000519376
0.000518954
0.000493548
0.000507891
0.000598921
0.00131021
0.00153592
0.00164444
0.00168132
0.00168799
0.00167036
0.00164558
0.00162149
0.00160313
0.0015927
0.00158756
0.00158525
0.00157785
0.00156175
0.00152846
0.00147052
0.00137558
0.00126357
0.00115583
0.00106401
0.000989541
0.000927815
0.000867311
0.000806274
0.000758852
0.000732294
0.000707345
0.000648128
0.000610496
0.000649864
0.00132244
0.00160023
0.00178732
0.00190393
0.00196186
0.00197546
0.00198163
0.00198528
0.00199537
0.0020129
0.00203315
0.00205112
0.00205459
0.00204066
0.00200049
0.0019263
0.00180399
0.00165988
0.00151965
0.00139714
0.00129519
0.00120949
0.00112751
0.00104528
0.000978138
0.000935678
0.000896759
0.000813018
0.000725781
0.000710909
0.00121323
0.00155336
0.00181263
0.00198725
0.00209711
0.00216609
0.00222115
0.00226495
0.00231719
0.00237447
0.00242927
0.00247313
0.00249158
0.0024813
0.00243574
0.0023474
0.00220142
0.00202936
0.00186052
0.00171063
0.00158367
0.00147589
0.00137446
0.00127369
0.00118834
0.00113037
0.00108264
0.000983365
0.000859097
0.00079972
0.00106834
0.00140935
0.00171219
0.00195934
0.0021383
0.00226635
0.00236695
0.00247049
0.00257966
0.00268641
0.00278316
0.00285715
0.00289214
0.00288633
0.00283577
0.00273519
0.00256899
0.00237247
0.00217865
0.00200457
0.00185524
0.00172757
0.00160888
0.00149219
0.00139072
0.00131759
0.00126012
0.00115341
0.00100431
0.000905808
0.000919898
0.00121141
0.0015398
0.00184202
0.00208746
0.0022855
0.00244973
0.00260438
0.00279445
0.00295667
0.00310133
0.00320656
0.00325963
0.00325898
0.00320298
0.00309168
0.00290835
0.00269064
0.00247498
0.00227972
0.0021106
0.00196532
0.00183148
0.00170121
0.00158582
0.00149837
0.0014294
0.00131991
0.00115491
0.0010242
0.000804828
0.00101224
0.00132897
0.00166611
0.00196827
0.00223217
0.00246999
0.0026953
0.00295469
0.00319064
0.00338784
0.00352584
0.00359687
0.00360167
0.0035398
0.00341867
0.00322128
0.00298525
0.00275058
0.00253694
0.00235053
0.00218976
0.00204285
0.00190109
0.00177391
0.00167346
0.00159247
0.00148227
0.00130685
0.00115105
0.000741066
0.000861116
0.00111886
0.00145935
0.00180353
0.00212676
0.00243347
0.00274065
0.00307858
0.0034031
0.00364383
0.00381748
0.00390594
0.00391579
0.00384862
0.00371795
0.00350893
0.00325758
0.00300647
0.00277708
0.00257569
0.0024015
0.0022434
0.00209214
0.0019552
0.00184346
0.00175117
0.00164099
0.00145879
0.00128297
0.000740704
0.000787653
0.000954662
0.00125387
0.00161598
0.00198729
0.00235913
0.00274433
0.00317359
0.00358675
0.00387127
0.00408256
0.00418834
0.00420264
0.00413081
0.00399105
0.00377199
0.00350864
0.00324376
0.00300091
0.00278681
0.00260111
0.0024335
0.00227463
0.00212997
0.00200881
0.00190684
0.0017969
0.00161076
0.00141892
0.000814181
0.000805616
0.000876888
0.00109043
0.00143161
0.0018319
0.00226003
0.00272405
0.00323937
0.00373936
0.004077
0.00432173
0.00444475
0.00446309
0.0043871
0.00423894
0.00401101
0.00373938
0.0034634
0.00320938
0.00298458
0.0027892
0.00261363
0.00244887
0.0022984
0.00216978
0.00205976
0.00195072
0.00176319
0.0015583
0.000952718
0.000913991
0.000908503
0.00100452
0.00128454
0.0016801
0.00215125
0.0026863
0.00327963
0.00386325
0.00426461
0.00453829
0.00467473
0.00469734
0.00461776
0.00446215
0.00422694
0.00394969
0.00366624
0.00340347
0.0031699
0.00296638
0.00278429
0.00261518
0.00246072
0.00232653
0.00221019
0.00210271
0.00191611
0.00170077
0.00114177
0.0010813
0.00103426
0.00102543
0.00119353
0.00155189
0.00204814
0.00263822
0.00329852
0.00396497
0.00443538
0.00473268
0.00487893
0.00490461
0.00482251
0.00466074
0.00442026
0.00413964
0.00385261
0.00358373
0.00334344
0.00313342
0.00294612
0.00277383
0.00261714
0.00247918
0.00235825
0.00225132
0.00206901
0.00184602
0.00137734
0.00129843
0.00122012
0.00114952
0.00116296
0.00145036
0.00194936
0.00258265
0.0033081
0.00403843
0.00458296
0.0049036
0.00505702
0.00508388
0.00500042
0.00483424
0.00459097
0.00430954
0.00402164
0.00375062
0.00350559
0.00329072
0.00309964
0.00292544
0.00276776
0.00262774
0.0025039
0.00239678
0.00222141
0.00199352
0.0016543
0.00155802
0.00145264
0.00133534
0.00125492
0.00139566
0.00186806
0.00253285
0.00331263
0.00409323
0.00470934
0.00504931
0.00520692
0.00523397
0.00514974
0.00498157
0.00473839
0.00445913
0.00417321
0.00390265
0.0036564
0.00343846
0.00324496
0.00307025
0.00291261
0.00277204
0.00264689
0.0025401
0.00237314
0.00214281
0.00196541
0.00185213
0.00172137
0.0015657
0.00141798
0.00142572
0.00181654
0.00249386
0.00331547
0.0041399
0.00481528
0.00516639
0.00532533
0.00535245
0.00526783
0.00510081
0.00486109
0.00458728
0.00430639
0.00403881
0.00379458
0.00357629
0.00338175
0.00320774
0.00305138
0.00291157
0.00278658
0.00268119
0.00252374
0.00229309
0.00230001
0.00217035
0.00201551
0.00182641
0.00162488
0.00152357
0.00179257
0.00246835
0.0033188
0.00417968
0.00489149
0.00524728
0.00540764
0.00543511
0.0053513
0.00518896
0.00495646
0.00469173
0.00441916
0.00415801
0.00391801
0.00370206
0.00350886
0.00333671
0.00318299
0.00304517
0.00292168
0.00281909
0.00267219
0.00244306
0.00264365
0.00249939
0.00232317
0.00210478
0.00185956
0.00167982
0.0018056
0.00245717
0.00332295
0.0042109
0.00493343
0.00528609
0.00544797
0.0054761
0.00539516
0.00524148
0.00502028
0.00476854
0.00450852
0.00425718
0.00402388
0.00381267
0.00362339
0.00345471
0.00330516
0.00317057
0.00305
0.00295183
0.00281669
0.002591
0.00297837
0.00282347
0.00263066
0.00238841
0.00210796
0.0018611
0.00187886
0.00246087
0.00332493
0.0042142
0.00492705
0.00527746
0.00543843
0.0054675
0.00539215
0.00525153
0.00504621
0.00481194
0.0045687
0.00433045
0.00410705
0.00390346
0.00372047
0.00355752
0.0034133
0.00328378
0.003168
0.00307608
0.00295436
0.00273421
0.00328389
0.00312453
0.00292235
0.00266377
0.00235668
0.00205215
0.00197517
0.00247422
0.00331422
0.00417549
0.00484411
0.00520914
0.00536775
0.00539839
0.00533186
0.00520902
0.00502483
0.00481242
0.00458976
0.00436881
0.00415892
0.00396615
0.00379172
0.00363729
0.00350067
0.00337839
0.00327008
0.00318648
0.00308051
0.00286848
0.00353713
0.00338243
0.00318062
0.00291491
0.00258779
0.00223745
0.0020917
0.00247978
0.00326743
0.00406381
0.00469869
0.00506673
0.00522028
0.00525389
0.00519983
0.00509936
0.0049409
0.00475477
0.00455703
0.00435794
0.00416546
0.00398744
0.00382624
0.00368327
0.00355688
0.00344463
0.00334801
0.00327446
0.0031869
0.00298653
0.00371329
0.00357622
0.0033861
0.00312231
0.00278337
0.00240108
0.00220084
0.00248614
0.0031728
0.00389805
0.00449501
0.00482872
0.00497595
0.00501605
0.00497854
0.00490355
0.00477483
0.00461849
0.00444946
0.00427668
0.00410751
0.00394955
0.00380597
0.00367831
0.00356587
0.00346781
0.00338661
0.00332553
0.00325797
0.00307535
0.00380845
0.00368573
0.00351702
0.00326027
0.00291692
0.00251999
0.00226908
0.00244393
0.00305595
0.00367207
0.00417016
0.00447126
0.00461885
0.00467265
0.00465584
0.00460615
0.00450932
0.00438538
0.00424716
0.00410282
0.00396038
0.00382709
0.00370609
0.00359892
0.00350564
0.00342649
0.00336351
0.00331785
0.00326801
0.00311349
0.00381754
0.00370696
0.0035516
0.00330849
0.00296897
0.00257407
0.00228202
0.00232629
0.00282275
0.00332373
0.00373421
0.0040083
0.00416641
0.00423987
0.00425102
0.00422554
0.00415913
0.00406546
0.00395545
0.00383866
0.0037224
0.00361384
0.00351651
0.00343168
0.00335959
0.00330154
0.00325896
0.00323057
0.0031993
0.0030774
0.00373715
0.00364407
0.00350312
0.00327326
0.00295077
0.0025694
0.0022467
0.00217187
0.00250889
0.00292527
0.00328037
0.003539
0.00370751
0.00380681
0.00384889
0.00384721
0.00380736
0.00373912
0.00365185
0.00355511
0.00345738
0.0033668
0.0032876
0.00322011
0.00316289
0.00311908
0.00309004
0.00307382
0.00305453
0.00295983
0.00360325
0.00352749
0.00339916
0.00319616
0.00291322
0.00257583
0.0022665
0.00212428
0.00232683
0.00266606
0.00297851
0.00322278
0.0033943
0.00350682
0.00356801
0.00358207
0.00356213
0.00351359
0.00344493
0.00336418
0.00327959
0.00319951
0.0031288
0.00306868
0.00301832
0.00297841
0.00294891
0.0029262
0.00289512
0.00280963
0.00347849
0.00342847
0.00332881
0.0031696
0.00295241
0.00269732
0.00246266
0.00232616
0.00243956
0.00268923
0.00293693
0.00313965
0.00328739
0.00338826
0.00344633
0.003464
0.00345651
0.00342426
0.0033749
0.00331441
0.00324927
0.00318642
0.0031306
0.00308248
0.00304004
0.00300215
0.0029663
0.0029282
0.00287336
0.00277384
0.00335478
0.00332688
0.00327247
0.00318108
0.00305431
0.00290263
0.00275549
0.00266838
0.00273118
0.00288195
0.00303762
0.00316952
0.0032682
0.00333607
0.00337069
0.0033798
0.00337322
0.00335061
0.00331719
0.00327783
0.00323718
0.00319942
0.0031679
0.00314392
0.00312101
0.00309977
0.0030751
0.00304381
0.00298772
0.00290185
0.00328632
0.00328257
0.00326732
0.00323053
0.00316713
0.00308225
0.0030043
0.0029539
0.0029805
0.00304291
0.00310504
0.00316508
0.00321204
0.00324338
0.00325434
0.00325309
0.00324428
0.00322775
0.00320756
0.00318786
0.00317203
0.00316226
0.00315954
0.00316199
0.00316987
0.00317565
0.00317817
0.00317959
0.00316131
0.00312503
0.000196745
0.000210253
0.000211996
0.000210369
0.00020648
0.000201237
0.000195213
0.000188776
0.000182144
0.000175548
0.000169108
0.000163049
0.000157431
0.000152467
0.000148036
0.000143818
0.00013898
0.000133577
0.000127953
0.000122205
0.000115632
0.000107147
9.61778e-05
8.35122e-05
0.000366408
0.000371618
0.000369587
9.20362e-05
0.000102449
0.000112921
0.000762664
0.000941721
0.00100164
0.00100061
0.000977939
0.000946631
0.000912401
0.00087776
0.000844019
0.000812054
0.00078071
0.000750677
0.000718576
0.000684809
0.000644247
0.000596216
0.000539591
0.000494282
0.00046624
0.000454175
0.000447665
0.000434554
0.000398409
0.00035295
0.000405976
0.000472124
0.000392978
0.000315019
0.000432788
0.00052838
0.0012285
0.0015349
0.00168741
0.00175381
0.00176924
0.00175576
0.00172636
0.00169031
0.0016515
0.00161197
0.00156955
0.00152405
0.00146872
0.00140307
0.00132047
0.00121857
0.00109761
0.000995848
0.000924502
0.000882077
0.00085542
0.000821837
0.000748305
0.000651793
0.000634657
0.00067332
0.000596469
0.000502091
0.000615578
0.000781016
0.00154245
0.00196739
0.00217668
0.00230404
0.00236438
0.00238668
0.002383
0.00236892
0.00234902
0.00232476
0.00229192
0.00224754
0.00218167
0.00209218
0.00197471
0.00182587
0.00164855
0.00149418
0.0013782
0.00130003
0.00124406
0.00118343
0.00107755
0.000934396
0.000868421
0.000886784
0.000821142
0.000686782
0.000740447
0.000902114
0.00172564
0.00217122
0.00249386
0.00268194
0.00278644
0.00285548
0.00289279
0.00291694
0.00293318
0.00294053
0.00293162
0.00289992
0.00282882
0.00272283
0.00257763
0.00238943
0.00216348
0.0019629
0.00180629
0.00169282
0.00160702
0.00152078
0.00138902
0.00121068
0.0011029
0.00109937
0.00104737
0.000891369
0.000861824
0.000999833
0.00176513
0.00220493
0.00256517
0.00284466
0.00305047
0.0031852
0.00327816
0.00335774
0.00342501
0.00347663
0.00350071
0.00348492
0.00341761
0.0032989
0.00313093
0.00290908
0.00264258
0.00240057
0.00220621
0.0020595
0.00194545
0.00183608
0.00168445
0.00148189
0.00133956
0.00131233
0.00126945
0.00111203
0.00102119
0.00111036
0.00169696
0.00213456
0.00254467
0.00289153
0.00316327
0.00337429
0.00355672
0.00370878
0.00384329
0.00395056
0.00401333
0.0040195
0.00395575
0.00382751
0.00364021
0.00338904
0.0030888
0.00280875
0.00257943
0.00240184
0.00226173
0.00213187
0.00196533
0.00174728
0.00157809
0.00152592
0.00148639
0.00133822
0.0012066
0.00125234
0.00157475
0.00200528
0.00244708
0.00284849
0.00319377
0.00348519
0.00373382
0.00398494
0.00420221
0.00437353
0.00448156
0.00451075
0.00445045
0.0043144
0.0041105
0.00383363
0.00350436
0.0031894
0.00292771
0.00272185
0.00255814
0.00241037
0.0022328
0.00200568
0.00181708
0.00174063
0.00169916
0.00156382
0.0014089
0.0014195
0.00143504
0.00181621
0.0022737
0.00272774
0.0031411
0.00351189
0.0038571
0.00418193
0.00451466
0.00475488
0.0049116
0.00496582
0.00490659
0.00476358
0.00454562
0.0042459
0.00389087
0.00354403
0.00325275
0.00302138
0.00283668
0.00267342
0.002488
0.00225652
0.00205506
0.00195664
0.00190925
0.00178645
0.00162089
0.00160301
0.00129701
0.00161104
0.00205649
0.00255019
0.00303087
0.00348472
0.00391984
0.00434636
0.00479293
0.00509871
0.00530761
0.00538657
0.00532888
0.00517743
0.00494811
0.00462775
0.00424913
0.00387401
0.00355608
0.00330224
0.00309919
0.00292278
0.00273173
0.00249978
0.0022907
0.00217374
0.00211761
0.0020058
0.00183816
0.00179653
0.00118914
0.00142956
0.00183423
0.00234159
0.00288086
0.00341797
0.00394848
0.00448147
0.00501562
0.0054094
0.00566955
0.00577433
0.00572018
0.00555827
0.00531921
0.00498006
0.0045794
0.0041805
0.00383937
0.00356625
0.00334752
0.00316014
0.00296474
0.00273543
0.00252282
0.00239147
0.00232505
0.00222248
0.00205923
0.00199499
0.00112795
0.00130462
0.00165167
0.00213762
0.00271425
0.00332774
0.00395523
0.00459562
0.0052189
0.00570239
0.00599193
0.00612893
0.0060801
0.00590744
0.00565867
0.00530277
0.00488231
0.00446447
0.00410425
0.00381533
0.00358344
0.00338692
0.00318825
0.00296328
0.00275096
0.0026094
0.00253308
0.00243736
0.00228405
0.00219528
0.0011242
0.00124525
0.0015237
0.00197899
0.00255969
0.00323197
0.00395593
0.00469235
0.00539848
0.00595356
0.00628228
0.0064484
0.00640676
0.00622462
0.00596538
0.00559504
0.00515845
0.00472678
0.00435251
0.00405129
0.00380885
0.00360435
0.00340353
0.00318388
0.00297495
0.00282713
0.00274233
0.00265105
0.00250845
0.00239913
0.00122643
0.00128753
0.00147432
0.00185635
0.00243561
0.00314592
0.00394376
0.00477126
0.00554821
0.00616646
0.00654499
0.00672958
0.00669681
0.00650803
0.00623703
0.00585564
0.00540776
0.00496845
0.00458567
0.00427571
0.00402503
0.00381371
0.00361168
0.00339821
0.00319498
0.00304414
0.00295274
0.00286367
0.00272924
0.00260625
0.0014368
0.00146773
0.00157094
0.00181611
0.00232603
0.00305475
0.00391875
0.00482369
0.00566788
0.00635389
0.00678378
0.00696977
0.0069457
0.00675328
0.00647017
0.00608244
0.00562986
0.00518982
0.00480468
0.00448953
0.00423262
0.00401582
0.0038135
0.00360686
0.00341102
0.00325957
0.00316347
0.00307474
0.00294614
0.00281306
0.00175844
0.00176557
0.00180559
0.00192138
0.002284
0.00298058
0.00388729
0.00486392
0.0057708
0.00651621
0.00698275
0.00716252
0.00714666
0.00695395
0.00665969
0.00627241
0.00582362
0.0053901
0.00500925
0.00469228
0.00443128
0.00421067
0.00400897
0.00380971
0.00362229
0.00347192
0.00337277
0.00328276
0.00315758
0.00301814
0.00216998
0.0021504
0.00213765
0.00213772
0.00232276
0.00294596
0.00386978
0.00489966
0.00585416
0.00664733
0.00712403
0.00729981
0.00728972
0.00710162
0.00679931
0.00642141
0.00598625
0.00556704
0.00519629
0.00488154
0.00461906
0.0043968
0.00419681
0.0040053
0.00382652
0.00367863
0.0035776
0.00348485
0.00336065
0.00321592
0.00262838
0.00257664
0.00250668
0.00243516
0.00247293
0.00294747
0.00386515
0.00492868
0.00591472
0.00673887
0.00719004
0.00737047
0.00736432
0.00718584
0.00688183
0.00652382
0.00611249
0.00571531
0.00535988
0.00505218
0.00479198
0.00457039
0.00437345
0.00418961
0.00401921
0.00387553
0.00377305
0.00367625
0.00355143
0.00340148
0.00308628
0.00299523
0.00287708
0.00274408
0.00269151
0.00299605
0.00386835
0.0049466
0.00596237
0.00674758
0.00718178
0.00736186
0.00735887
0.00719388
0.00690009
0.00657201
0.0061939
0.00582563
0.00549037
0.00519532
0.00494188
0.00472414
0.00453192
0.00435603
0.00419433
0.0040561
0.0039516
0.00384983
0.00372372
0.00356965
0.00350511
0.0033776
0.0032201
0.00304077
0.00292665
0.00308833
0.00387673
0.00494346
0.00592599
0.00663229
0.00708186
0.0072593
0.00726153
0.00711507
0.00684455
0.00655603
0.0062185
0.00588423
0.0055744
0.0052974
0.00505547
0.00484573
0.00466113
0.00449407
0.00434138
0.00420872
0.00410222
0.00399568
0.00386892
0.00371292
0.00385868
0.00370289
0.00351566
0.00330144
0.00312958
0.00317509
0.00384756
0.00485127
0.00575529
0.00642845
0.00687628
0.00704862
0.00706249
0.00694178
0.00670603
0.00646439
0.00617146
0.00587473
0.0055951
0.00534037
0.00511476
0.00491731
0.00474319
0.00458649
0.00444362
0.00431712
0.0042101
0.00410098
0.00397597
0.003821
0.00413242
0.00395672
0.00374924
0.0035094
0.00329185
0.00326323
0.00379553
0.00465345
0.00548787
0.00615319
0.00655024
0.00672426
0.0067581
0.00667054
0.00647952
0.00628737
0.00604025
0.00578328
0.00553541
0.00530553
0.00509856
0.00491599
0.00475544
0.00461191
0.00448125
0.00436327
0.00425808
0.00415133
0.00403208
0.00388151
0.00431538
0.0041298
0.00391129
0.00365397
0.00339977
0.00330674
0.00365238
0.00443142
0.00516693
0.00574694
0.00610828
0.00629496
0.00635677
0.00630935
0.00617185
0.00602668
0.00582473
0.00560627
0.00538886
0.0051832
0.00499698
0.00483191
0.00468682
0.00455785
0.0044409
0.00433342
0.00423379
0.00413463
0.00402532
0.00388266
0.00440367
0.00421936
0.00399887
0.00373088
0.00344592
0.00327671
0.00343549
0.0041048
0.00473618
0.00524144
0.00558736
0.00579622
0.00589209
0.00589204
0.00581179
0.00570904
0.005549
0.00536644
0.00517883
0.0049969
0.0048295
0.00467982
0.00454791
0.00443108
0.00432566
0.00422859
0.00413792
0.00404881
0.00395083
0.0038183
0.00440649
0.00423523
0.00402251
0.0037534
0.00344789
0.00320675
0.00320507
0.00367823
0.00423996
0.00471036
0.00506516
0.00529772
0.00543168
0.00548046
0.00545417
0.00538684
0.00526301
0.00511218
0.0049516
0.00479112
0.0046397
0.00450201
0.00437917
0.00426985
0.00417127
0.00408075
0.00399646
0.00391439
0.00382374
0.00369762
0.00435339
0.00420618
0.00401358
0.00376077
0.00345734
0.00317574
0.00305937
0.00333426
0.00381842
0.00427348
0.00463363
0.00488944
0.00505511
0.00514072
0.00515413
0.00511116
0.00501445
0.00488948
0.00475257
0.00461209
0.00447641
0.0043507
0.0042367
0.00413376
0.00403962
0.00395204
0.00386931
0.00378766
0.00369561
0.00356498
0.00429786
0.00418346
0.00402307
0.00380458
0.00353717
0.00326818
0.00310493
0.00323617
0.00361636
0.00402885
0.00437173
0.00462708
0.00480125
0.00490009
0.00492934
0.00489544
0.0048146
0.00470892
0.00459319