/*--------------------------------*- C++ -*----------------------------------*\
| =========                 |                                                 |
| \\      /  F ield         | OpenFOAM: The Open Source CFD Toolbox           |
|  \\    /   O peration     | Version:  5.0                                   |
|   \\  /    A nd           | Web:      www.OpenFOAM.org                      |
|    \\/     M anipulation  |                                                 |
\*---------------------------------------------------------------------------*/
FoamFile
{
    version     2.0;
    format      ascii;
    class       volScalarField;
    location    "1050/air";
    object      epsilon;
}
// * * * * * * * * * * * * * * * * * * * * * * * * * * * * * * * * * * * * * //

dimensions      [0 2 -3 0 0 0 0];

internalField   nonuniform List<scalar> 
243000
(
1.96867
2.77015
3.2405
3.59735
3.83718
3.96823
4.00319
3.95392
3.83072
3.6466
3.41487
3.16011
2.90712
2.69343
2.53858
2.45172
2.38926
2.3066
2.18251
2.02158
1.83702
1.64327
1.45284
1.27582
1.11971
0.966709
0.789303
0.653223
0.128144
0.620055
1.07867
1.4231
1.57641
1.66327
1.69504
1.6876
1.65187
1.59508
1.52274
1.44043
1.35345
1.27008
1.19606
1.14132
1.10831
1.09342
1.07197
1.02918
0.966594
0.892113
0.812847
0.733652
0.65715
0.586637
0.526725
0.473147
0.408844
0.316351
0.237324
0.269945
1.28311
1.7425
1.956
2.08701
2.14226
2.14523
2.11151
2.05155
1.97328
1.8849
1.79283
1.70725
1.63441
1.58597
1.56283
1.55606
1.52891
1.46325
1.36617
1.25246
1.13378
1.01722
0.905846
0.802574
0.712182
0.633835
0.55253
0.447608
0.34052
0.292918
1.19711
1.76478
2.097
2.30167
2.40033
2.43684
2.4256
2.38236
2.31784
2.24256
2.16384
2.09339
2.03778
2.00994
2.00813
2.01722
1.98923
1.9038
1.77363
1.6211
1.46265
1.30795
1.16085
1.02398
0.902005
0.795636
0.693235
0.577005
0.454193
0.37281
0.995723
1.57947
2.0078
2.29855
2.47779
2.57447
2.60517
2.59692
2.56392
2.51885
2.47
2.42999
2.4053
2.40966
2.43799
2.46761
2.44184
2.33951
2.17907
1.98997
1.79331
1.6015
1.41936
1.24944
1.09644
0.961867
0.835732
0.705809
0.570663
0.464928
0.821118
1.3285
1.7674
2.14098
2.40117
2.56671
2.66218
2.70784
2.72252
2.7225
2.7176
2.72109
2.73887
2.78496
2.84947
2.90243
2.88082
2.76409
2.5764
2.35366
2.1213
1.89432
1.67873
1.47721
1.29441
1.13243
0.981285
0.835225
0.687439
0.560423
0.677584
1.08335
1.51429
1.8907
2.20906
2.44869
2.61576
2.72706
2.80486
2.86291
2.91397
2.97216
3.04196
3.13696
3.24161
3.3194
3.30309
3.17415
2.96227
2.70899
2.44377
2.18411
1.93713
1.70578
1.49472
1.30638
1.13091
0.966324
0.804703
0.659181
0.640408
0.852479
1.26055
1.64835
1.9814
2.25404
2.48759
2.67111
2.82013
2.94887
3.06628
3.18842
3.31795
3.46727
3.6144
3.71744
3.70696
3.5679
3.33477
3.05415
2.75898
2.46926
2.19314
1.9339
1.69622
1.48271
1.28423
1.09967
0.923195
0.761373
0.736852
0.733836
1.01986
1.4026
1.75773
2.05541
2.30927
2.55687
2.78086
2.9907
3.18102
3.37487
3.57016
3.77772
3.96822
4.09607
4.09178
3.94428
3.69277
3.38788
3.06567
2.74844
2.44555
2.16059
1.89807
1.6607
1.44025
1.2352
1.04333
0.866824
0.884422
0.800952
0.859922
1.1642
1.53059
1.85852
2.14081
2.40804
2.7001
2.99007
3.26327
3.53579
3.80169
4.07006
4.30345
4.45519
4.45716
4.30291
4.03558
3.70934
3.36287
3.02074
2.69348
2.38505
2.09956
1.83979
1.59839
1.37273
1.16531
0.974878
1.06179
0.961908
0.855926
0.977103
1.306
1.65838
1.97469
2.26913
2.59214
2.96049
3.32178
3.67511
4.01524
4.34554
4.62047
4.79481
4.80282
4.64353
4.36297
4.01804
3.64998
3.28535
2.93606
2.60641
2.30005
2.01946
1.75812
1.512
1.28904
1.08487
1.26237
1.16286
1.01844
0.9208
1.1146
1.45834
1.80739
2.13512
2.48111
2.90964
3.35899
3.79696
4.21304
4.60484
4.9196
5.11491
5.12853
4.96592
4.67453
4.31367
3.92652
3.54173
3.1725
2.82367
2.49859
2.19891
1.91886
1.6527
1.41461
1.19652
1.48536
1.38808
1.23451
1.05229
1.01375
1.27607
1.63996
2.00313
2.38118
2.84468
3.37962
3.90469
4.39695
4.84872
5.2009
5.41533
5.43419
5.26961
4.96994
4.59577
4.19213
3.78952
3.40239
3.03628
2.69439
2.37748
2.08017
1.79468
1.54148
1.30956
1.73195
1.63322
1.4754
1.26169
1.04959
1.14563
1.48043
1.87375
2.2878
2.77364
3.38864
4.00121
4.5683
5.07741
5.46418
5.69579
5.71956
5.55426
5.24865
4.86388
4.4464
4.02837
3.62547
3.24416
2.88753
2.55515
2.24205
1.93916
1.67021
1.42436
2.00396
1.89849
1.73336
1.50383
1.23193
1.10509
1.3452
1.74966
2.19966
2.71479
3.39056
4.08959
4.7279
5.29067
5.70892
5.95579
5.98439
5.81946
5.51001
5.1175
4.68898
4.25805
3.84179
3.44756
3.07816
2.73204
2.40461
2.08648
1.80128
1.54166
2.30305
2.18523
2.00779
1.76349
1.45708
1.17167
1.25549
1.63535
2.1166
2.66489
3.38804
4.1698
4.87579
5.48788
5.93427
6.19464
6.2282
6.06476
5.75353
5.35593
4.91934
4.47842
4.05144
3.6467
3.26643
2.9083
2.56774
2.23574
1.93511
1.66196
2.63046
2.4947
2.29957
2.0368
1.70328
1.33174
1.22541
1.53869
2.03966
2.62238
3.38286
4.24192
5.0111
5.66788
6.13908
6.41147
6.4504
6.28946
5.97847
5.57846
5.13723
4.68939
4.25451
3.8416
3.4525
3.08402
2.7318
2.38736
2.07186
1.78551
2.98734
2.82787
2.60965
2.32379
1.96416
1.54902
1.27325
1.46981
1.97069
2.58639
3.37531
4.30529
5.13241
5.82903
6.32183
6.60514
6.65011
6.49302
6.18443
5.78487
5.34211
4.89065
4.45089
4.03231
3.63648
3.2597
2.89746
2.54173
2.21187
1.91269
3.37422
3.18535
2.93882
2.6251
2.23708
1.7884
1.38839
1.43607
1.91215
2.55625
3.36525
4.35853
5.23759
5.96901
6.48065
6.77434
6.82614
6.67488
6.37145
5.97542
5.53408
5.08218
4.64043
4.21879
3.81865
3.43578
3.06536
2.69953
2.35566
2.04408
3.79204
3.5678
3.28775
2.94145
2.5216
2.03851
1.55282
1.43895
1.86653
2.53108
3.35256
4.3996
5.32517
6.08537
6.61351
6.91763
6.97737
6.8349
6.54008
6.15043
5.7134
5.26414
4.82338
4.40136
3.99935
3.61292
3.23643
2.86202
2.50416
2.18043
4.24194
3.97636
3.65754
3.27409
2.81876
2.30171
1.74589
1.48905
1.83692
2.51046
3.34275
4.42619
5.39074
6.17512
6.71804
7.03321
7.10328
6.97266
6.69
6.31016
5.88053
5.43712
5.00036
4.5807
4.1795
3.7921
3.41211
3.03139
2.65888
2.32272
4.72955
4.41483
4.05107
3.62608
3.13196
2.57233
1.95582
1.5728
1.82412
2.4944
3.33546
4.43304
5.42872
6.23497
6.79072
7.11827
7.20159
7.08666
6.82029
6.45441
6.03589
5.6018
5.17243
4.75804
4.36032
3.97472
3.59435
3.20981
2.82182
2.47221
5.26758
4.89159
4.47536
4.00596
3.4856
2.86244
2.17865
1.6844
1.82776
2.48488
3.33245
4.4182
5.42706
6.25313
6.82426
7.16629
7.26657
7.17251
6.92777
6.58107
6.17862
5.75817
5.34028
4.93473
4.54359
4.16274
3.78509
3.39951
2.99599
2.63111
5.83553
5.42317
4.9522
4.45209
3.86206
3.16585
2.41012
1.81705
1.85236
2.48504
3.33461
4.38093
5.38496
6.2216
6.80464
7.16255
7.2838
7.21733
7.00231
6.68146
6.30205
5.9019
5.5016
5.11035
4.73029
4.35796
3.98605
3.60213
3.18968
2.80397
6.41776
6.00892
5.50487
4.91768
4.24889
3.48045
2.65199
1.9688
1.90155
2.50268
3.35102
4.34733
5.30194
6.12572
6.71043
7.08094
7.22628
7.19419
7.01577
6.73309
6.38709
6.0166
5.64231
5.27345
4.91243
4.55526
4.19386
3.81407
3.39597
2.99081
6.95939
6.51776
5.96555
5.35043
4.63996
3.81692
2.92174
2.1548
1.99421
2.5643
3.41557
4.37161
5.27232
6.04266
6.60359
6.9693
7.13709
7.14075
7.00524
6.76655
6.45885
6.11383
5.75467
5.40152
5.06641
4.73293
4.38947
4.01955
3.60365
3.19428
7.38158
6.94884
6.43953
5.83222
5.10405
4.24366
3.29307
2.45252
2.20399
2.76535
3.63714
4.57967
5.44702
6.18124
6.72729
7.08979
7.27163
7.30313
7.20208
6.99689
6.71741
6.39211
6.04344
5.69029
5.3447
5.00172
4.65286
4.28738
3.88914
3.46915
8.1377
7.69376
7.18152
6.57667
5.85387
4.99637
4.0385
3.16517
2.85163
3.43226
4.36335
5.32979
6.19168
6.9084
7.43985
7.78808
7.96602
8.00558
7.91741
7.7248
7.45347
7.12979
6.77547
6.40744
6.03692
5.66428
5.28421
4.88863
4.46084
3.99254
9.79457
9.39797
8.96807
8.48212
7.90747
7.21552
6.42077
5.68303
5.42926
6.04302
7.04341
8.03509
8.87232
9.53759
10.0079
10.2913
10.4143
10.4134
10.2926
10.0735
9.7758
9.42226
9.03279
8.62017
8.19366
7.74563
7.271
6.77472
6.24829
5.67189
17.2952
17.2855
17.275
17.2198
17.0771
16.8162
16.4728
16.1884
16.1686
16.4054
16.8923
17.4109
17.8233
18.1271
18.2847
18.3692
18.3692
18.3341
18.251
18.1479
18.0193
17.8822
17.739
17.5928
17.4324
17.1314
16.6646
16.1508
15.6774
15.1429
3.73321
5.27942
6.33795
7.14472
7.72265
8.09588
8.28146
8.29784
8.16189
7.90338
7.55169
7.1556
6.74636
6.37576
6.04813
5.73791
5.34374
4.82801
4.22017
3.56931
2.91618
2.29067
1.72575
1.28268
0.977656
0.857218
0.172761
0.150787
0.704714
0.831582
2.96297
3.49289
3.94275
4.27691
4.49792
4.62388
4.66637
4.63615
4.54346
4.40197
4.22767
4.04059
3.85498
3.68568
3.53512
3.3757
3.15374
2.85532
2.52587
2.17669
1.82532
1.4837
1.15974
0.869538
0.65129
0.496857
0.392874
0.418547
0.510907
0.395381
2.8816
3.26799
3.60165
3.83409
3.97452
4.04464
4.05749
4.0217
3.94596
3.84006
3.71521
3.58539
3.45935
3.34687
3.24446
3.12496
2.93968
2.68191
2.39377
2.09255
1.78609
1.48243
1.19261
0.920519
0.702147
0.558455
0.473734
0.453405
0.493134
0.429109
2.76637
3.13185
3.44927
3.64628
3.75534
3.80474
3.81159
3.78476
3.73163
3.65916
3.57458
3.48803
3.40489
3.3328
3.26371
3.16885
3.0002
2.75522
2.4752
2.18413
1.8888
1.59545
1.30996
1.03619
0.805766
0.650073
0.554541
0.498797
0.48109
0.425842
2.41012
2.88925
3.24153
3.45273
3.56011
3.60821
3.62304
3.61601
3.59341
3.55947
3.51759
3.47434
3.43382
3.39861
3.35877
3.28441
3.12761
2.88873
2.60991
2.31924
2.02449
1.73153
1.44385
1.16508
0.922718
0.751514
0.642014
0.564532
0.509247
0.452472
1.8057
2.43109
2.88982
3.172
3.31619
3.38514
3.42317
3.44617
3.46236
3.47324
3.47859
3.48243
3.48444
3.486
3.47396
3.41835
3.27191
3.03759
2.75871
2.46578
2.16806
1.87189
1.5799
1.2959
1.04338
0.857264
0.73368
0.643173
0.567
0.508419
1.23246
1.88719
2.40161
2.78194
3.00466
3.1213
3.19504
3.25899
3.32184
3.38337
3.43985
3.49293
3.53929
3.57794
3.59263
3.55445
3.41807
3.18864
2.91021
2.61469
2.31287
2.01208
1.71485
1.42567
1.16469
0.964946
0.828136
0.727633
0.641352
0.576273
0.864792
1.36324
1.91134
2.36191
2.65093
2.82247
2.94214
3.05381
3.17015
3.28688
3.39744
3.50281
3.59288
3.66813
3.70882
3.68694
3.56081
3.33729
3.06047
2.76282
2.45678
2.15098
1.84824
1.55373
1.28544
1.07347
0.924095
0.813749
0.721965
0.651309
0.695841
0.962406
1.4566
1.94834
2.29827
2.52529
2.68057
2.83864
3.01103
3.18568
3.35257
3.51071
3.64399
3.75471
3.82023
3.81379
3.6982
3.4818
3.20798
2.9089
2.59891
2.28814
1.98007
1.68014
1.40533
1.18246
1.02103
0.900394
0.803621
0.730297
0.66058
0.758518
1.084
1.55773
1.95957
2.24076
2.43808
2.62658
2.85104
3.08339
3.30884
3.51754
3.6931
3.83764
3.92625
3.9347
3.82973
3.62159
3.35189
3.05213
2.73852
2.42308
2.1101
1.80507
1.5244
1.29202
1.11903
0.987845
0.885409
0.809593
0.718605
0.732823
0.86069
1.21853
1.63989
1.97355
2.21661
2.43551
2.6978
2.985
3.26892
3.52476
3.74106
3.91754
4.02747
4.05023
3.95565
3.75658
3.49155
3.19183
2.87496
2.55518
2.2379
1.92863
1.64309
1.40261
1.21853
1.0768
0.968498
0.890902
0.847978
0.837107
0.83591
0.993942
1.3554
1.72382
2.01416
2.27015
2.55783
2.89668
3.23335
3.5338
3.78901
3.99538
4.12504
4.16157
4.07703
3.88721
3.6267
3.32749
3.0079
2.68425
2.36331
2.05083
1.76164
1.51449
1.32033
1.16838
1.0546
0.975779
1.02814
1.00849
0.969011
0.951552
1.15319
1.50065
1.83031
2.12466
2.44178
2.82197
3.20391
3.54621
3.83822
4.07247
4.22062
4.27036
4.19534
4.01422
3.75763
3.45885
3.13709
2.81036
2.48657
2.17192
1.88024
1.62786
1.42501
1.26372
1.14511
1.06539
1.23485
1.21047
1.16033
1.06919
1.07088
1.32751
1.66835
1.99893
2.35076
2.7587
3.18153
3.56322
3.89015
4.15065
4.3164
4.37891
4.31254
4.13885
3.88506
3.5863
3.26257
2.9335
2.60792
2.29257
1.99948
1.74314
1.53316
1.36421
1.24133
1.16086
1.46807
1.43561
1.38091
1.26269
1.13251
1.22806
1.53692
1.89487
2.27654
2.70764
3.1667
3.58596
3.94662
4.23242
4.41537
4.49005
4.43132
4.26301
4.01055
3.71077
3.38503
3.05435
2.72801
2.41328
2.12009
1.86097
1.64548
1.47075
1.34439
1.26335
1.72583
1.68229
1.62147
1.49243
1.29595
1.21087
1.44205
1.80796
2.2175
2.66957
3.15962
3.61595
4.01027
4.32134
4.52161
4.60779
4.55546
4.38975
4.13648
3.83396
3.50546
3.17418
2.84804
2.53503
2.24301
1.98231
1.76284
1.58411
1.45529
1.37407
2.00949
1.95293
1.88299
1.74435
1.51548
1.30055
1.39152
1.74021
2.17277
2.64609
3.16069
3.65596
4.08505
4.42255
4.64097
4.73796
4.69069
4.52375
4.26666
3.95834
3.62882
3.29576
2.97015
2.65955
2.36964
2.10862
1.88657
1.70542
1.57518
1.49419
2.32371
2.25312
2.17089
2.01914
1.76624
1.46502
1.3844
1.69441
2.14196
2.63543
3.17591
3.71237
4.17721
4.54377
4.78214
4.88939
4.84539
4.67274
4.40722
4.09265
3.75926
3.42345
3.09802
2.78986
2.50251
2.24231
2.01873
1.83651
1.7057
1.62527
2.67598
2.59094
2.49345
2.32308
2.04266
1.67683
1.45268
1.67417
2.12497
2.63701
3.20837
3.79244
4.29669
4.69714
4.95869
5.076
5.03285
4.84904
4.57307
4.24878
3.90647
3.56512
3.23803
2.93119
2.64618
2.38748
2.16291
1.98061
1.84966
1.76985
3.07713
2.97766
2.86217
2.66752
2.35372
1.92713
1.57857
1.67824
2.12188
2.66243
3.26951
3.90758
4.46058
4.90299
5.19312
5.32104
5.27494
5.07875
4.78739
4.44429
4.08685
3.73462
3.4017
3.09331
2.8094
2.55143
2.32555
2.14342
2.01202
1.93219
3.54332
3.42989
3.29447
3.07097
2.71862
2.22151
1.75846
1.72592
2.14785
2.7261
3.38823
4.08424
4.70017
5.19757
5.52528
5.66575
5.61619
5.40042
5.08349
4.7128
4.33007
3.95787
3.6113
3.29509
3.00751
2.74696
2.51804
2.33551
2.20217
2.12022
4.10138
3.97458
3.81802
3.56225
3.15929
2.57628
1.98943
1.82633
2.22825
2.86827
3.59695
4.37315
5.07614
5.65005
6.03083
6.18924
6.13253
5.88852
5.53263
5.1186
4.69306
4.28429
3.90891
3.57194
3.26977
2.99859
2.76367
2.57798
2.43892
2.34934
4.79826
4.65939
4.48282
4.19778
3.72888
3.0353
2.30723
2.01316
2.40667
3.13351
3.98535
4.88355
5.71435
6.40176
6.86418
7.05125
6.9854
6.70059
6.28285
5.79698
5.29533
4.81766
4.38329
3.99839
3.65934
3.36267
3.11274
2.91536
2.76038
2.64967
5.72558
5.57775
5.39381
5.08128
4.52531
3.69554
2.79905
2.36354
2.77022
3.66328
4.74201
5.86939
6.89696
7.76418
8.3657
8.60708
8.53457
8.18898
7.67403
7.06384
6.4299
5.82318
5.26912
4.77953
4.35455
3.991
3.68864
3.44693
3.24645
3.08313
7.09252
6.95453
6.76812
6.40569
5.76203
4.78921
3.69598
3.10773
3.59826
4.80037
6.30346
7.87781
9.30313
10.4837
11.3386
11.6961
11.6394
11.2093
10.5098
9.66956
8.78033
7.91423
7.11094
6.39182
5.76284
5.22563
4.77647
4.40161
4.07856
3.7891
9.44467
9.29964
9.08452
8.68133
7.97965
6.90339
5.64729
4.94409
5.66503
7.45627
9.74444
12.1279
14.2607
16.0172
17.3167
17.8848
17.8515
17.2831
16.2993
15.0543
13.6948
12.3396
11.0548
9.87281
8.80489
7.86334
7.04643
6.33977
5.70516
5.10842
13.8975
13.7282
13.4967
13.1259
12.5026
11.5413
10.4195
9.88782
11.1209
13.9158
17.4805
21.113
24.2818
26.8524
28.7345
29.584
29.6083
28.8829
27.5282
25.7148
23.6376
21.4888
19.3815
17.3709
15.4813
13.7288
12.122
10.6488
9.26073
7.94325
22.8862
22.6715
22.5057
22.3294
22.0611
21.6896
21.4672
21.9925
24.1573
28.1927
33.1609
38.043
42.1559
45.3932
47.6507
48.6824
48.8185
48.0571
46.4685
44.1966
41.4375
38.4268
35.3396
32.2374
29.1536
26.1219
23.1555
20.2681
17.4306
14.6927
36.275
36.2564
36.6715
37.152
37.5787
38.3165
39.612
41.9717
45.4302
50.1079
55.2457
60.0184
63.908
66.8551
68.4817
68.9932
68.9379
68.0824
66.4756
64.1922
61.3768
58.1739
54.7687
51.2512
47.626
43.9483
40.1487
36.2523
32.2355
28.3181
40.7395
41.184
42.403
43.4489
43.9676
44.4084
45.5541
48.2947
52.5771
56.7851
60.3563
63.4876
65.9919
67.697
67.8411
66.9726
66.1011
64.6527
62.7719
60.549
58.1482
55.6397
53.1509
50.783
48.5712
46.4596
44.4253
42.5301
40.6943
38.9962
5.51174
7.83885
9.32877
10.5342
11.4443
12.0867
12.4824
12.6481
12.5937
12.3462
11.9269
11.3908
10.762
10.0979
9.39245
8.60255
7.62157
6.53349
5.45367
4.44287
3.46919
2.50934
1.62826
1.10468
0.222455
0.19952
0.170903
0.753571
0.909022
1.04635
3.72563
4.59755
5.24844
5.75126
6.09826
6.31679
6.42688
6.44227
6.37239
6.22924
6.02734
5.78229
5.51146
5.22353
4.92183
4.55988
4.10319
3.62505
3.17952
2.75904
2.30932
1.80558
1.2728
0.766839
0.427347
0.306707
0.336622
0.480417
0.5131
0.480675
3.48725
4.269
4.86287
5.26819
5.51495
5.63996
5.669
5.62125
5.51254
5.35713
5.16875
4.96032
4.74451
4.52714
4.30132
4.02435
3.66698
3.2918
2.95125
2.63169
2.26971
1.84146
1.36656
0.877623
0.54268
0.398321
0.373725
0.422914
0.468411
0.489395
3.37154
4.14044
4.74724
5.15406
5.38407
5.47756
5.47535
5.40158
5.27919
5.12403
4.94888
4.76496
4.58206
4.40502
4.21922
3.98024
3.65789
3.31747
3.00707
2.7144
2.38198
1.98062
1.51889
1.02967
0.662111
0.49148
0.419727
0.414356
0.429308
0.464713
3.24519
3.99452
4.62054
5.0433
5.27699
5.36414
5.35376
5.27659
5.1605
5.02178
4.87106
4.71694
4.57309
4.43048
4.27506
4.06139
3.76109
3.43845
3.13815
2.85262
2.52926
2.13768
1.67968
1.18768
0.790401
0.588273
0.483608
0.437488
0.429669
0.474157
2.96533
3.74558
4.40413
4.85389
5.10197
5.19906
5.19909
5.13836
5.04712
4.94102
4.82775
4.71663
4.60881
4.50145
4.37357
4.18065
3.89792
3.58908
3.29467
3.00934
2.6867
2.29791
1.84045
1.34564
0.925077
0.688754
0.558685
0.484541
0.45804
0.505745
2.46358
3.27096
4.00501
4.5271
4.81734
4.9499
4.98252
4.95894
4.91055
4.85174
4.78794
4.72326
4.65826
4.58631
4.48496
4.31149
4.04615
3.75114
3.46212
3.17428
2.84805
2.45824
2.00007
1.50286
1.06457
0.796202
0.64172
0.547456
0.507592
0.553262
1.89901
2.64627
3.42683
4.02308
4.40289
4.60917
4.70039
4.73507
4.74635
4.74791
4.74271
4.73029
4.71055
4.67417
4.59878
4.4451
4.19905
3.91926
3.63605
3.34428
3.01175
2.61837
2.15885
1.65978
1.20799
0.911044
0.732131
0.620436
0.569692
0.611906
1.42196
2.01152
2.77604
3.44098
3.9002
4.18239
4.36234
4.47422
4.55993
4.63184
4.69134
4.73583
4.76312
4.76221
4.71195
4.57958
4.35562
4.09305
3.81557
3.51852
3.17752
2.77861
2.31717
1.81705
1.35522
1.03331
0.830379
0.70106
0.63944
0.677092
1.08431
1.48478
2.14503
2.83574
3.36937
3.73252
3.98407
4.18907
4.36044
4.50943
4.63766
4.74167
4.81588
4.85119
4.82516
4.71633
4.51716
4.27329
4.00088
3.69686
3.34541
2.93925
2.47547
1.97533
1.5065
1.16312
0.937268
0.789413
0.715223
0.745668
0.879801
1.12112
1.61344
2.25616
2.84236
3.28394
3.61256
3.89424
4.15778
4.38752
4.58745
4.74985
4.8709
4.94284
4.94127
4.85861
4.68635
4.46111
4.1923
3.87928
3.51555
3.10043
2.63443
2.13531
1.66242
1.30068
1.05349
0.886634
0.797964
0.818613
0.79618
0.931264
1.25086
1.76649
2.35273
2.85774
3.26164
3.61534
3.96244
4.27318
4.54808
4.76436
4.93204
5.04016
5.06503
5.01117
4.86672
4.65891
4.39061
4.06606
3.68813
3.26284
2.79445
2.29763
1.82337
1.44644
1.17963
0.99416
0.889728
0.898419
0.78922
0.872775
1.06889
1.42632
1.94026
2.47497
2.94393
3.36622
3.78104
4.17615
4.51778
4.78987
5.00392
5.14814
5.20246
5.18004
5.06278
4.86936
4.59707
4.25794
3.86372
3.42769
2.95651
2.46288
1.98957
1.60089
1.31669
1.11364
0.992969
0.987405
0.858646
0.912894
1.02495
1.25463
1.64439
2.15745
2.66972
3.1521
3.62871
4.09983
4.49937
4.83055
5.09202
5.27401
5.36149
5.37254
5.28063
5.09622
4.81415
4.45675
4.04415
3.59671
3.12231
2.63229
2.1617
1.76472
1.4658
1.24677
1.11034
1.08764
0.988351
1.03671
1.10509
1.21385
1.48172
1.92242
2.44813
2.98169
3.51314
4.04142
4.49391
4.89157
5.20393
5.42761
5.55237
5.59832
5.52839
5.3452
5.04647
4.66627
4.23312
3.77306
3.29483
2.80839
2.34146
1.93918
1.62851
1.39535
1.24355
1.20229
1.17846
1.22347
1.27467
1.30441
1.42581
1.77023
2.28102
2.84806
3.42499
4.00246
4.51375
4.98218
5.35034
5.62197
5.78915
5.87036
5.81659
5.62532
5.30217
4.89374
4.43698
3.9622
3.47892
2.99541
2.53216
2.12678
1.80722
1.5617
1.39468
1.33482
1.43463
1.47006
1.50966
1.48945
1.48553
1.69723
2.16012
2.74719
3.36433
3.98371
4.57236
5.11485
5.54639
5.87519
6.09127
6.207
6.1616
5.95156
5.59521
5.1517
4.66684
4.1736
3.68293
3.20032
2.7399
2.33241
2.00612
1.74924
1.56659
1.48607
1.76791
1.78457
1.79387
1.73728
1.64441
1.69335
2.08789
2.67913
3.33119
3.99365
4.68644
5.3073
5.81428
6.21319
6.48669
6.63542
6.58943
6.34894
5.9491
5.46143
4.94104
4.42411
3.92129
3.43562
2.97549
2.5652
2.2325
1.96348
1.76341
1.65898
2.19387
2.16847
2.14019
2.0395
1.87451
1.79667
2.0654
2.64416
3.32618
4.06708
4.86824
5.58642
6.18792
6.67496
7.01769
7.19827
7.1426
6.85928
6.40328
5.85958
5.29316
4.74327
4.21898
3.72276
3.25725
2.84249
2.49907
2.21378
1.99199
1.85888
2.7249
2.64707
2.56924
2.41263
2.17192
1.97652
2.10288
2.64414
3.38879
4.24809
5.15516
5.99749
6.72168
7.32211
7.75164
7.96529
7.89235
7.55381
7.02667
6.41088
5.78385
5.18337
4.6227
4.10175
3.62052
3.19221
2.8277
2.51636
2.26419
2.09434
3.3891
3.25091
3.11211
2.8861
2.55828
2.24765
2.23704
2.73855
3.57055
4.55747
5.6091
6.61878
7.50684
8.25654
8.80166
9.05571
8.96202
8.55678
7.94104
7.23272
6.52091
5.8428
5.22171
4.6534
4.13201
3.66333
3.25594
2.89939
2.60071
2.37978
4.23801
4.02933
3.81878
3.51032
3.07997
2.63604
2.48674
2.97648
3.91615
5.08345
6.34856
7.58836
8.70472
9.6587
10.367
10.6807
10.5711
10.0919
9.36977
8.54037
7.7151
6.9217
6.18493
5.51064
4.89493
4.3393
3.848
3.41336
3.03982
2.74251
5.35391
5.06795
4.77786
4.37904
3.83147
3.23239
2.94168
3.42225
4.5438
5.9962
7.59234
9.1675
10.6157
11.8591
12.8088
13.2228
13.1191
12.5697
11.7345
10.7437
9.71651
8.70943
7.7603
6.88601
6.08842
5.36633
4.72192
4.15303
3.65529
3.23716
6.89415
6.53284
6.16714
5.68494
5.01114
4.23918
3.79939
4.31156
5.72144
7.6222
9.74529
11.8616
13.8056
15.4613
16.7841
17.3666
17.3211
16.6979
15.6653
14.3923
13.0305
11.667
10.3603
9.14247
8.02491
7.01185
6.10744
5.30768
4.59808
3.97935
9.18685
8.77722
8.36588
7.82712
7.04455
6.11667
5.54577
6.16175
8.03906
10.6434
13.5782
16.4988
19.1617
21.426
23.2619
24.0596
24.0477
23.2957
21.9933
20.3257
18.4824
16.5898
14.7305
12.9659
11.3256
9.82597
8.47705
7.27378
6.19277
5.23048
12.9303
12.5361
12.1444
11.6084
10.8163
9.86532
9.30035
10.1721
12.7451
16.3689
20.4395
24.4379
28.0247
31.0091
33.4177
34.4254
34.4279
33.5232
31.9042
29.7602
27.3129
24.7255
22.1136
19.5669
17.1412
14.8727
12.7875
10.8922
9.1592
7.58736
19.475
19.1728
18.9041
18.5479
17.9483
17.3215
17.1805
18.6287
22.0263
26.8409
32.1884
37.3277
41.8327
45.4512
48.2458
49.287
49.215
48.1249
46.2196
43.6485
40.6315
37.3725
33.9935
30.582
27.206
23.9193
20.7707
17.796
14.9937
12.3821
30.4291
30.1658
30.1211
30.1774
30.2619
30.4487
31.4263
33.8539
38.0059
43.619
49.7837
55.544
60.4605
64.1804
66.6217
67.0499
66.5215
65.0625
62.921
60.1633
56.9568
53.4931
49.8682
46.115
42.2432
38.264
34.2031
30.1119
26.0363
22.0982
42.9911
42.9336
43.4464
44.056
44.6512
45.7526
48.1869
52.1547
56.9842
62.542
68.282
73.3886
77.5155
80.1569
80.6981
79.1389
77.2706
74.8287
72.1908
69.3318
66.3721
63.3808
60.4284
57.497
54.5028
51.3606
47.9913
44.3839
40.5607
36.7163
44.5384
45.2979
46.5571
47.6468
48.3847
49.3894
51.6268
55.6628
60.9282
66.1188
70.6732
74.4087
77.0021
77.9559
76.5552
73.3438
70.3808
67.068
63.9051
60.916
58.229
55.8207
53.7213
51.9078
50.3226
48.8577
47.4384
46.0589
44.6862
43.4643
7.92254
10.8724
12.5432
13.9399
15.0364
15.8588
16.4234
16.7304
16.7642
16.5316
16.0315
15.3185
14.4072
13.3667
12.1826
10.8031
9.18696
7.67321
6.51211
5.60675
4.56857
3.23402
1.8551
0.255004
0.200637
0.189772
0.773062
0.952993
1.15016
1.28731
4.95648
5.92515
6.59226
7.15456
7.5789
7.87574
8.05377
8.11656
8.06612
7.90769
7.65574
7.32482
6.94248
6.51254
6.03799
5.44954
4.78876
4.2427
3.91582
3.63754
3.1484
2.40424
1.53898
0.583008
0.223795
0.250263
0.40668
0.500036
0.563119
0.598308
4.53701
5.32628
5.97004
6.46962
6.81118
7.01704
7.10009
7.07252
6.94742
6.74273
6.47957
6.17614
5.85517
5.52213
5.1648
4.72047
4.22006
3.83306
3.62938
3.45097
3.06606
2.41926
1.64028
0.787165
0.301058
0.273237
0.344759
0.410766
0.481732
0.55236
4.25975
5.03874
5.75852
6.32345
6.69577
6.88815
6.93967
6.87079
6.7077
6.47714
6.2056
5.91483
5.62073
5.33293
5.02685
4.63815
4.19492
3.8595
3.68402
3.5259
3.17376
2.56792
1.8073
0.973436
0.408354
0.301534
0.34084
0.378926
0.435476
0.523218
3.97083
4.75331
5.56178
6.20478
6.62639
6.84351
6.89283
6.81143
6.63682
6.40124
6.13561
5.86928
5.61012
5.3533
5.07927
4.7224
4.31337
4.00763
3.84157
3.68268
3.34103
2.75138
1.99144
1.15785
0.536142
0.348378
0.35846
0.384638
0.436484
0.536325
3.63842
4.42605
5.30908
6.02927
6.50586
6.74983
6.81166
6.74073
6.57963
6.3665
6.12953
5.89296
5.66535
5.44153
5.19374
4.86138
4.48257
4.20533
4.04633
3.87983
3.5363
2.95161
2.18624
1.34344
0.679484
0.421753
0.393939
0.409488
0.460833
0.572005
3.25171
4.03821
4.97288
5.76057
6.28614
6.56406
6.65312
6.61477
6.49179
6.31936
6.1301
5.93245
5.74428
5.55359
5.33027
5.02251
4.6773
4.43391
4.28308
4.10523
3.75121
3.16422
2.39114
1.53554
0.837644
0.518039
0.445965
0.450941
0.501191
0.620004
2.76238
3.53838
4.50722
5.35243
5.93576
6.26708
6.40754
6.42459
6.36251
6.25289
6.12298
5.97522
5.83055
5.67379
5.47556
5.19691
4.89404
4.68994
4.5478
4.35465
3.98263
3.38735
2.60631
1.73829
1.01062
0.634519
0.515347
0.504654
0.552545
0.675635
2.28304
2.97802
3.93032
4.80084
5.4428
5.86065
6.08047
6.17639
6.19598
6.16539
6.10404
6.01773
5.91938
5.79749
5.62701
5.38533
5.13507
4.97513
4.83986
4.62621
4.22903
3.62002
2.83159
1.9538
1.19888
0.770323
0.602835
0.569464
0.611956
0.735973
1.8533
2.42203
3.30331
4.17682
4.87332
5.36334
5.68733
5.88595
6.00316
6.06346
6.08208
6.0619
6.01179
5.92592
5.78769
5.59355
5.40616
5.29297
5.16232
4.91914
4.48947
3.8617
3.06633
2.18244
1.40363
0.925984
0.709088
0.646784
0.678356
0.799793
1.49634
1.92705
2.68931
3.53219
4.27131
4.83739
5.25436
5.57097
5.79907
5.95811
6.06234
6.11171
6.11238
6.06446
5.96446
5.82993
5.71547
5.64706
5.51334
5.23228
4.76338
4.11212
3.31052
2.42396
1.62653
1.10286
0.835604
0.738147
0.753888
0.867593
1.22271
1.53343
2.15076
2.92173
3.68005
4.31707
4.82837
5.24989
5.59739
5.85928
6.05111
6.17199
6.2288
6.22194
6.16728
6.10592
6.07096
6.04133
5.89325
5.56514
5.0507
4.37199
3.56446
2.67866
1.86861
1.30228
0.984537
0.846469
0.841256
0.940968
1.04083
1.2579
1.7338
2.40086
3.1424
3.83313
4.43176
4.95163
5.41191
5.78045
6.05053
6.252
6.36898
6.40994
6.41075
6.4365
6.47989
6.48005
6.30266
5.91813
5.35261
4.64363
3.82923
2.94747
2.13088
1.52592
1.1584
0.976108
0.94123
1.02295
0.946157
1.09967
1.45903
2.00889
2.69535
3.41118
4.08259
4.69298
5.25672
5.7248
6.08172
6.36379
6.54544
6.64262
6.71454
6.83892
6.95037
6.96608
6.74366
6.29383
5.67276
4.93202
4.10905
3.23421
2.41262
1.77531
1.35959
1.12993
1.05773
1.11562
0.923574
1.04273
1.31801
1.75782
2.36331
3.0697
3.79408
4.48912
5.13532
5.69321
6.15435
6.52156
6.77547
6.94153
7.10174
7.33299
7.50473
7.50874
7.22307
6.69923
6.0194
5.24615
4.41149
3.54076
2.71665
2.05304
1.59083
1.31144
1.19497
1.22638
0.999963
1.09509
1.28824
1.62936
2.13951
2.81406
3.5696
4.32879
5.04916
5.68915
6.27919
6.74437
7.0828
7.33582
7.60289
7.94376
8.15497
8.12187
7.75592
7.14952
6.40795
5.59938
4.74957
3.87935
3.05298
2.36466
1.85591
1.52463
1.35768
1.35728
1.18369
1.26574
1.40679
1.6107
2.01773
2.63217
3.3985
4.21184
5.00398
5.75629
6.48109
7.05889
7.50039
7.86565
8.2589
8.70519
8.92933
8.83259
8.37014
7.67294
6.86431
6.01329
5.14688
4.27324
3.43969
2.7199
2.16088
1.77457
1.55392
1.50902
1.48822
1.54478
1.6382
1.7406
1.98986
2.52603
3.28381
4.14147
5.00393
5.92932
6.79149
7.50251
8.07512
8.58548
9.12707
9.66601
9.87396
9.68802
9.11446
8.31677
7.43011
6.53706
5.65102
4.76001
3.89845
3.13313
2.5154
2.06854
1.78859
1.68865
1.92821
1.93992
1.98473
1.98483
2.09
2.4953
3.22732
4.12204
5.11917
6.21973
7.25422
8.12975
8.87512
9.57247
10.288
10.8992
11.0631
10.7657
10.0689
9.15502
8.18014
7.26508
6.32776
5.38093
4.45995
3.62496
2.93546
2.41877
2.07092
1.90425
2.52098
2.47829
2.44689
2.35875
2.3157
2.57334
3.24086
4.21777
5.41098
6.68591
7.93633
9.02598
10.0019
10.9388
11.858
12.516
12.6133
12.1931
11.3649
10.3181
9.31735
8.30316
7.25219
6.1945
5.1679
4.23076
3.44842
2.84664
2.41762
2.17065
3.30308
3.1833
3.06626
2.87719
2.70157
2.81008
3.44184
4.52582
5.90433
7.42049
8.94316
10.3231
11.6083
12.8502
14.0092
14.6891
14.7103
14.1811
13.2319
12.1139
10.9916
9.77885
8.52485
7.27963
6.08854
5.00982
4.10237
3.39037
2.85901
2.51318
4.34102
4.12097
3.91178
3.61337
3.3006
3.24912
3.86231
5.08442
6.71433
8.56201
10.4463
12.2286
13.9274
15.5538
17.0013
17.6884
17.6559
17.0894
16.0272
14.7869
13.3724
11.8453
10.2899
8.7731
7.34615
6.06567
4.9842
4.12065
3.4508
2.97376
5.71629
5.40658
5.10908
4.70159
4.23872
4.03669
4.62998
6.05045
8.04122
10.3435
12.7441
15.0677
17.3102
19.4137
21.222
21.9307
21.9479
21.2861
20.0287
18.5009
16.7103
14.7764
12.8145
10.9196
9.15739
7.58568
6.25273
5.17008
4.30084
3.6333
7.63939
7.2621
6.89782
6.40078
5.79345
5.45242
6.04901
7.74432
10.2394
13.187
16.2958
19.3338
22.2665
24.9439
27.2243
27.9768
27.9025
27.0354
25.5494
23.6382
21.4017
18.9771
16.5104
14.1206
11.8982
9.90901
8.20507
6.79292
5.61951
4.66678
10.4955
10.0926
9.70594
9.17891
8.49118
8.06735
8.72751
10.7917
13.9586
17.7697
21.79
25.7104
29.4475
32.744
35.4931
36.1403
35.856
34.7065
32.9257
30.6256
27.9303
24.9839
21.951
18.9859
16.1864
13.6316
11.3879
9.47329
7.82468
6.42473
14.9719
14.5908
14.2471
13.8094
13.2566
12.898
13.7649
16.3084
20.2331
25.0601
30.1158
34.9844
39.5232
43.3472
46.3796
46.5951
45.8769
44.3212
42.215
39.5976
36.571
33.239
29.7426
26.2609
22.8788
19.6702
16.7193
14.0776
11.7088
9.62877
22.0128
21.6594
21.431
21.2375
21.083
21.2949
22.6221
25.7265
30.3306
36.0202
41.9913
47.6138
52.6967
56.7026
59.4638
58.4949
56.6065
54.1873
51.6687
48.9014
45.9635
42.8616
39.6241
36.177
32.5645
28.9014
25.2914
21.8382
18.5707
15.5156
31.8557
31.5447
31.5323
31.6975
32.113
33.2726
35.7043
39.4328
44.4336
50.4409
56.773
62.5545
67.5474
70.9315
72.1878
68.6238
65.257
61.8665
58.9185
56.088
53.4241
50.8552
48.3231
45.7145
42.8907
39.7572
36.2994
32.6013
28.7795
25.0292
41.0108
41.1592
41.6695
42.264
43.0808
44.8174
48.1025
52.8009
58.2769
64.0717
69.9479
75.0234
78.948
80.439
79.0424
72.7703
67.849
63.3964
59.9665
57.0982
54.7808
52.8903
51.3195
49.9121
48.4263
46.6772
44.5465
42.0377
39.2411
36.412
40.7536
41.751
42.9959
44.1254
45.2352
47.0507
50.3089
55.1688
60.8758
66.5456
71.7238
75.7344
78.2127
77.9091
74.041
66.0613
60.1511
55.0686
51.2074
48.2107
46.0596
44.5733
43.6387
43.0842
42.7348
42.4113
41.9998
41.4826
40.8997
40.4539
11.0324
14.5798
16.4124
17.8255
18.9562
19.8101
20.4106
20.7488
20.7817
20.4896
19.8407
18.8843
17.6223
16.1337
14.39
12.3326
10.1225
8.67458
8.40251
8.52989
7.605
5.47512
2.96577
1.16372
0.198765
0.20029
0.914974
1.13898
1.35807
1.45129
6.60256
7.59774
8.20188
8.70143
9.11713
9.42676
9.62351
9.70036
9.64917
9.46307
9.15712
8.73769
8.24311
7.65775
6.98848
6.13635
5.30754
4.95013
5.18707
5.38925
4.88177
3.76329
2.40826
0.840938