/*--------------------------------*- C++ -*----------------------------------*\
| =========                 |                                                 |
| \\      /  F ield         | OpenFOAM: The Open Source CFD Toolbox           |
|  \\    /   O peration     | Version:  5.0                                   |
|   \\  /    A nd           | Web:      www.OpenFOAM.org                      |
|    \\/     M anipulation  |                                                 |
\*---------------------------------------------------------------------------*/
FoamFile
{
    version     2.0;
    format      ascii;
    class       volScalarField;
    location    "1050/air";
    object      k;
}
// * * * * * * * * * * * * * * * * * * * * * * * * * * * * * * * * * * * * * //

dimensions      [0 2 -2 0 0 0 0];

internalField   nonuniform List<scalar> 
243000
(
0.0510614
0.0625044
0.0676911
0.0708489
0.072277
0.0723132
0.0712619
0.0693531
0.0667529
0.0636285
0.0601212
0.0564891
0.0529962
0.0500828
0.0479991
0.0468874
0.0462121
0.0453892
0.0441057
0.0423597
0.0402597
0.0379464
0.0355576
0.033226
0.0310821
0.0288017
0.0257452
0.0228847
0.0213719
0.0236257
0.0794943
0.0956122
0.102352
0.10607
0.107409
0.107089
0.105567
0.103128
0.0999816
0.0963398
0.092414
0.0885701
0.0850828
0.0824534
0.0808434
0.0801157
0.0790769
0.0769754
0.073836
0.0700023
0.0657973
0.0614531
0.0571025
0.0529356
0.0492557
0.0458513
0.0415917
0.0349252
0.0289091
0.0315524
0.0892371
0.109422
0.118174
0.123384
0.125545
0.125653
0.124325
0.121951
0.11882
0.115235
0.111439
0.107852
0.104749
0.102656
0.101646
0.101359
0.100199
0.097335
0.0930012
0.0877809
0.0821527
0.0764249
0.0707398
0.0652505
0.0602424
0.0557295
0.0508491
0.0441762
0.036823
0.0333091
0.0852028
0.11034
0.123772
0.131691
0.13542
0.136781
0.136351
0.134713
0.132255
0.12936
0.1263
0.12353
0.121319
0.120201
0.120126
0.120503
0.119419
0.11601
0.110686
0.104264
0.0973655
0.0903789
0.0834703
0.0767686
0.0705332
0.0648622
0.0591616
0.0523428
0.0446245
0.0391263
0.0753487
0.102463
0.120221
0.131554
0.138296
0.141861
0.142977
0.142659
0.14143
0.139749
0.13792
0.136412
0.135476
0.135634
0.136699
0.137829
0.13691
0.1331
0.126975
0.119541
0.111543
0.103448
0.0954498
0.0876687
0.0803464
0.0736189
0.0670233
0.0598774
0.0519663
0.045335
0.0662566
0.0912883
0.110399
0.125444
0.135402
0.14155
0.145024
0.14666
0.14717
0.147148
0.146956
0.14707
0.147705
0.149359
0.151671
0.153579
0.152867
0.148758
0.141981
0.1337
0.124765
0.115706
0.106755
0.0980297
0.0897566
0.0820921
0.0746037
0.0669973
0.05884
0.0513529
0.0582967
0.0796702
0.0995726
0.115446
0.128046
0.137138
0.143294
0.147312
0.150082
0.152124
0.153915
0.155951
0.158386
0.161679
0.16528
0.167958
0.167466
0.163134
0.15583
0.146843
0.137112
0.127228
0.117451
0.107902
0.0987989
0.0903035
0.0820165
0.0738436
0.0653597
0.0572252
0.0561672
0.0679036
0.0880926
0.105329
0.119066
0.129727
0.138527
0.145241
0.150568
0.155106
0.159191
0.163394
0.167804
0.172826
0.177717
0.181134
0.180858
0.176366
0.168639
0.159069
0.148665
0.138077
0.127586
0.117323
0.107495
0.0982628
0.0892776
0.0804951
0.0716322
0.0629993
0.061695
0.061487
0.0764782
0.0945499
0.109896
0.121963
0.131786
0.141015
0.149115
0.15652
0.163092
0.169669
0.17618
0.182984
0.189133
0.193238
0.193174
0.188566
0.180506
0.170458
0.15949
0.148299
0.137199
0.126323
0.115865
0.105982
0.0963745
0.0869847
0.0777229
0.0686919
0.0696912
0.065235
0.0682978
0.0834846
0.100172
0.114008
0.125262
0.135434
0.146152
0.156431
0.165844
0.174986
0.183697
0.192298
0.199642
0.20438
0.204516
0.199835
0.191515
0.181079
0.169639
0.15794
0.146322
0.134929
0.123929
0.113474
0.10331
0.0933316
0.0836718
0.0742902
0.0787289
0.0737272
0.0681786
0.0743113
0.0900819
0.105625
0.118656
0.130146
0.142171
0.155337
0.167775
0.179519
0.190494
0.200874
0.209334
0.214648
0.214965
0.210252
0.201741
0.190993
0.179162
0.167033
0.15498
0.143153
0.1317
0.12075
0.110088
0.099546
0.089498
0.0797801
0.0883593
0.0836746
0.0766086
0.0715421
0.0810561
0.0969074
0.11181
0.124935
0.138053
0.153493
0.168972
0.183431
0.196683
0.208784
0.21828
0.224107
0.224584
0.219879
0.211237
0.200251
0.188102
0.175614
0.163192
0.151002
0.139174
0.127804
0.116703
0.105633
0.0952221
0.085166
0.0984835
0.094159
0.0871056
0.0783108
0.076183
0.0886385
0.104745
0.119688
0.134288
0.15114
0.169611
0.186853
0.202352
0.216091
0.226531
0.232808
0.233429
0.22876
0.220048
0.20889
0.196491
0.183711
0.170983
0.158488
0.146354
0.134635
0.123158
0.111603
0.100837
0.0904503
0.109106
0.104942
0.0980955
0.0884091
0.0781429
0.0825444
0.0978016
0.114425
0.130715
0.148582
0.169862
0.18989
0.207564
0.222835
0.234121
0.240789
0.241539
0.23693
0.228201
0.216938
0.204358
0.191351
0.178376
0.165641
0.153267
0.141263
0.12947
0.117525
0.10638
0.0956642
0.120252
0.116018
0.109216
0.0993869
0.087032
0.0807108
0.091748
0.10927
0.127293
0.146446
0.169877
0.192653
0.212363
0.229035
0.24107
0.248073
0.248946
0.244417
0.235717
0.224415
0.211724
0.198556
0.185401
0.172493
0.15994
0.14771
0.135656
0.123409
0.111879
0.100849
0.131942
0.127424
0.120455
0.110514
0.0973511
0.0840788
0.0876797
0.104423
0.124025
0.144621
0.16975
0.195138
0.216763
0.234697
0.247383
0.254672
0.255669
0.251241
0.242614
0.231332
0.218602
0.205347
0.192085
0.179072
0.166396
0.153997
0.141724
0.129228
0.117356
0.106031
0.144172
0.139187
0.131857
0.121648
0.108028
0.0916881
0.0863924
0.100258
0.12096
0.143055
0.169538
0.19736
0.220751
0.239807
0.253052
0.26059
0.26172
0.257412
0.248897
0.237695
0.225008
0.211745
0.198449
0.185395
0.172655
0.160138
0.147698
0.135007
0.122822
0.111224
0.156937
0.15132
0.143457
0.132817
0.118789
0.101466
0.0887882
0.0972733
0.118185
0.14172
0.16925
0.199303
0.224297
0.244337
0.258058
0.26582
0.267099
0.262938
0.254581
0.243521
0.230949
0.217759
0.204508
0.191479
0.178733
0.166162
0.15361
0.140765
0.128295
0.116445
0.170214
0.16382
0.155279
0.144059
0.129544
0.111649
0.0942083
0.0958412
0.115812
0.140595
0.168884
0.200927
0.227351
0.24824
0.26237
0.270347
0.271796
0.267826
0.259687
0.248838
0.236446
0.223404
0.21027
0.197335
0.184651
0.172092
0.159487
0.146531
0.133796
0.121718
0.183995
0.176686
0.167339
0.15541
0.140299
0.121815
0.101585
0.0960891
0.11396
0.139653
0.168458
0.202176
0.229879
0.25146
0.265949
0.27415
0.275799
0.272088
0.264246
0.25367
0.241523
0.228701
0.215757
0.202984
0.190428
0.177954
0.165364
0.152352
0.13936
0.127071
0.198279
0.189932
0.179664
0.166914
0.151112
0.132095
0.109897
0.0984346
0.112771
0.138881
0.168146
0.202983
0.231761
0.25393
0.268748
0.277196
0.279107
0.275729
0.268265
0.258037
0.246205
0.233679
0.220998
0.208456
0.1961
0.183786
0.171292
0.158301
0.14504
0.132538
0.213205
0.203655
0.192334
0.178672
0.162106
0.142256
0.11857
0.102219
0.112283
0.138281
0.167919
0.203188
0.232845
0.255569
0.270683
0.279425
0.281674
0.278721
0.27173
0.261948
0.250515
0.238367
0.226033
0.213796
0.20171
0.189635
0.177334
0.164449
0.150904
0.138163
0.229095
0.218074
0.205545
0.190946
0.174091
0.152763
0.127431
0.107108
0.11249
0.13793
0.167833
0.202732
0.232795
0.256062
0.271571
0.280676
0.28336
0.28096
0.274568
0.265354
0.25444
0.242773
0.230888
0.219049
0.207317
0.195563
0.183547
0.170861
0.157054
0.144021
0.245275
0.233617
0.219911
0.204884
0.18642
0.163382
0.136317
0.112757
0.113565
0.137944
0.167924
0.201595
0.231586
0.255195
0.271043
0.280569
0.283798
0.282119
0.276523
0.268034
0.257805
0.246785
0.235504
0.224207
0.21295
0.201623
0.189981
0.177579
0.163755
0.150264
0.261324
0.250147
0.236006
0.218941
0.198676
0.174041
0.145303
0.119014
0.11567
0.138616
0.168496
0.200602
0.229202
0.252562
0.268529
0.278425
0.282291
0.281503
0.276862
0.269398
0.260105
0.249958
0.23949
0.228941
0.218372
0.207656
0.196522
0.184473
0.17074
0.156868
0.275816
0.264061
0.248957
0.231585
0.210682
0.185087
0.15501
0.126454
0.119487
0.140919
0.170687
0.201401
0.228388
0.250305
0.265693
0.275505
0.279972
0.280112
0.276587
0.270288
0.262045
0.252638
0.242652
0.232623
0.222903
0.213014
0.202582
0.191038
0.177621
0.163901
0.286835
0.27554
0.261947
0.245269
0.224498
0.198636
0.167885
0.137897
0.127832
0.148257
0.178053
0.207809
0.233466
0.254161
0.269034
0.278694
0.283495
0.284351
0.281748
0.276388
0.26899
0.260242
0.250695
0.240834
0.230983
0.220994
0.210596
0.199421
0.186873
0.173171
0.306086
0.294877
0.281682
0.265701
0.245958
0.221449
0.192304
0.163452
0.151933
0.17139
0.201181
0.230061
0.254403
0.273812
0.287779
0.296757
0.301305
0.302331
0.300128
0.295254
0.288307
0.279903
0.270554
0.260666
0.250519
0.240101
0.229238
0.217653
0.204767
0.190184
0.346305
0.336915
0.326598
0.314748
0.30045
0.282767
0.26171
0.241215
0.233549
0.250371
0.277263
0.302825
0.323624
0.339703
0.350848
0.357482
0.360353
0.360351
0.357571
0.352488
0.345513
0.337135
0.32778
0.317721
0.307153
0.295854
0.283643
0.270588
0.256389
0.240383
0.505775
0.505596
0.50541
0.504362
0.501611
0.496532
0.489774
0.484043
0.483514
0.488036
0.497586
0.507734
0.51575
0.521628
0.524661
0.526289
0.526294
0.525632
0.524045
0.522077
0.519617
0.516984
0.514228
0.511401
0.508296
0.502446
0.493283
0.483094
0.473613
0.462798
0.0782292
0.0960849
0.10587
0.111945
0.115211
0.116315
0.115686
0.113666
0.11051
0.106539
0.102025
0.0973851
0.0928764
0.0889518
0.0856376
0.082687
0.0790872
0.0743374
0.0685317
0.061963
0.0548746
0.0474422
0.0399691
0.0333931
0.0284552
0.0263265
0.0247924
0.0235587
0.0251202
0.0287379
0.137145
0.159767
0.170449
0.174892
0.175457
0.173515
0.169952
0.16537
0.160181
0.154764
0.149318
0.144181
0.139318
0.134941
0.130523
0.125176
0.11724
0.107176
0.0969412
0.0870246
0.0774936
0.0681254
0.0586371
0.049373
0.0419093
0.0373143
0.0358033
0.0377036
0.0426826
0.0405656
0.172986
0.196178
0.210571
0.217423
0.219393
0.218165
0.215006
0.210721
0.205863
0.200869
0.195902
0.191236
0.186666
0.182311
0.177426
0.170753
0.16015
0.146565
0.132532
0.119125
0.106491
0.0943139
0.0820151
0.0697005
0.059336
0.0524667
0.0483037
0.0460849
0.0487555
0.0493887
0.185482
0.213674
0.232024
0.241216
0.245281
0.245595
0.243986
0.241338
0.238278
0.235183
0.232074
0.22908
0.225804
0.222258
0.217586
0.210298
0.19791
0.181773
0.16478
0.148513
0.133187
0.118528
0.103841
0.0890453
0.0761784
0.067216
0.0610142
0.0553914
0.0527967
0.0512494
0.173939
0.209488
0.2345
0.249786
0.257468
0.260096
0.261035
0.261021
0.260864
0.260767
0.260529
0.260063
0.258761
0.256556
0.252526
0.245041
0.231406
0.213325
0.194015
0.175366
0.157752
0.140983
0.1243
0.107509
0.0925514
0.0816921
0.0739194
0.0659999
0.0592266
0.0552527
0.144212
0.189331
0.222979
0.244601
0.256916
0.263805
0.268631
0.272175
0.275941
0.279768
0.283196
0.285899
0.287046
0.286517
0.283384
0.275963
0.261458
0.241877
0.220709
0.200081
0.180517
0.161926
0.143559
0.12516
0.108478
0.0958994
0.0868248
0.0774764
0.0679926
0.0621197
0.111807
0.158897
0.197565
0.227457
0.246942
0.259113
0.267909
0.276429
0.285181
0.293703
0.30143
0.307757
0.311684
0.313066
0.310949
0.303758
0.288683
0.267949
0.245305
0.223034
0.201802
0.181631
0.161817
0.142092
0.123986
0.109847
0.0995188
0.0892474
0.0781862
0.0703851
0.0869128
0.125213
0.167145
0.203214
0.229179
0.247437
0.261545
0.274741
0.289959
0.303698
0.316225
0.326493
0.333389
0.336829
0.33577
0.328911
0.313507
0.291927
0.26812
0.244493
0.221838
0.200301
0.179237
0.158385
0.139091
0.123552
0.111965
0.100964
0.0889569
0.0795673
0.0729267
0.0961757
0.135561
0.175537
0.207211
0.231303
0.250679
0.26947
0.290578
0.31059
0.32832
0.342748
0.352693
0.35825
0.358246
0.351767
0.336247
0.314081
0.289386
0.264648
0.240784
0.218066
0.195933
0.17411
0.153817
0.137041
0.124223
0.112545
0.0998357
0.0893191
0.0681843
0.0787555
0.107307
0.1469
0.183155
0.212678
0.237298
0.261381
0.28862
0.315572
0.33827
0.356988
0.370002
0.377649
0.378694
0.37261
0.357124
0.334615
0.309259
0.283625
0.258734
0.235004
0.21196
0.189317
0.168187
0.150348
0.136374
0.124035
0.110717
0.0992864
0.0710993
0.0740367
0.0883275
0.120436
0.158603
0.192941
0.222782
0.251864
0.285056
0.318764
0.346557
0.369553
0.385624
0.395288
0.397356
0.391679
0.376307
0.353683
0.327855
0.301505
0.275752
0.251153
0.227344
0.204045
0.182249
0.163525
0.148498
0.135511
0.121678
0.109532
0.0809745
0.0800274
0.0834283
0.101439
0.13572
0.17313
0.207857
0.242264
0.280424
0.320624
0.353706
0.380711
0.39979
0.411379
0.414428
0.40917
0.393954
0.371421
0.345267
0.318359
0.291892
0.266563
0.24212
0.218321
0.196028
0.176599
0.160656
0.147074
0.132844
0.120129
0.0964487
0.0935592
0.0914311
0.0952658
0.118586
0.1547
0.193318
0.232743
0.275687
0.321662
0.360102
0.390817
0.412656
0.426089
0.430081
0.425256
0.410245
0.387909
0.361589
0.334252
0.307209
0.281282
0.256333
0.232177
0.209549
0.189587
0.17289
0.158804
0.144305
0.131136
0.11571
0.111487
0.106751
0.102031
0.110156
0.139843
0.180091
0.223723
0.271278
0.322196
0.365956
0.400055
0.424414
0.439547
0.444471
0.440106
0.425341
0.403244
0.376898
0.349252
0.321754
0.295359
0.270035
0.245668
0.222853
0.202519
0.18524
0.170728
0.156124
0.142611
0.138567
0.133043
0.126486
0.117397
0.111824
0.130031
0.168635
0.215517
0.267349
0.322144
0.371127
0.408512
0.435216
0.451895
0.457754
0.453874
0.439405
0.417561
0.391246
0.363439
0.33559
0.308853
0.283286
0.258849
0.235987
0.215431
0.197743
0.182907
0.168354
0.154603
0.16465
0.157758
0.149549
0.137559
0.124262
0.126662
0.159907
0.208478
0.26404
0.322033
0.375788
0.416267
0.445166
0.463308
0.470094
0.46674
0.452613
0.431014
0.40476
0.376834
0.348776
0.321843
0.296159
0.271784
0.249002
0.228367
0.210436
0.195418
0.181043
0.167164
0.19365
0.185321
0.17543
0.161032
0.142838
0.132677
0.154901
0.202956
0.261476
0.322437
0.380056
0.423388
0.454377
0.473977
0.481687
0.478918
0.46519
0.443785
0.417587
0.38952
0.361503
0.334457
0.30875
0.284545
0.26196
0.241385
0.223367
0.208317
0.194238
0.180327
0.225266
0.215474
0.203821
0.187119
0.165069
0.145569
0.153483
0.199242
0.259747
0.32333
0.383972
0.429969
0.463011
0.484124
0.492817
0.490696
0.477415
0.45614
0.429931
0.401875
0.373878
0.346817
0.321197
0.297232
0.274949
0.254566
0.236592
0.221665
0.207985
0.194123
0.259165
0.247957
0.234515
0.215459
0.189902
0.163529
0.157794
0.1976
0.258877
0.324632
0.387581
0.436185
0.471334
0.494079
0.503884
0.502496
0.489685
0.468453
0.442351
0.414323
0.386243
0.359168
0.333691
0.310009
0.288106
0.268031
0.250216
0.235554
0.222363
0.208616
0.294977
0.282524
0.267365
0.245942
0.217036
0.184526
0.167794
0.19799
0.258766
0.326321
0.391003
0.442396
0.479818
0.504393
0.515513
0.514975
0.502616
0.481597
0.455608
0.427379
0.399121
0.371958
0.346572
0.32317
0.301676
0.281984
0.264424
0.250149
0.237516
0.223917
0.33237
0.318972
0.302329
0.27868
0.246629
0.208038
0.18158
0.201328
0.259926
0.32868
0.394674
0.449348
0.489324
0.516032
0.528762
0.529238
0.517519
0.496639
0.470567
0.442045
0.413412
0.385976
0.360492
0.337262
0.3161
0.296775
0.279548
0.265761
0.253736
0.240249
0.371116
0.357254
0.339541
0.313972
0.278596
0.233929
0.198753
0.207335
0.262871
0.332602
0.400499
0.45857
0.501485
0.530775
0.545541
0.547294
0.53625
0.515481
0.489161
0.46011
0.43073
0.402654
0.376755
0.353357
0.33223
0.313094
0.296334
0.283045
0.271599
0.258049
0.411281
0.397733
0.379612
0.352746
0.313897
0.263035
0.219552
0.217961
0.269208
0.340477
0.412329
0.473073
0.519476
0.552045
0.569494
0.572839
0.562625
0.541939
0.515082
0.485064
0.454339
0.424949
0.397904
0.373605
0.351908
0.332671
0.3163
0.303334
0.292149
0.278092
0.454988
0.441779
0.424372
0.396574
0.353994
0.297335
0.245543
0.234155
0.283459
0.357306
0.433215
0.499064
0.549844
0.586777
0.607987
0.613395
0.604352
0.583798
0.556167
0.524453
0.491603
0.459896
0.430499
0.404039
0.380627
0.360255
0.343143
0.32945
0.317315
0.301832
0.506999
0.494716
0.477702
0.448547
0.402995
0.342095
0.282957
0.261958
0.310486
0.389135
0.472644
0.547428
0.606512
0.649497
0.676347
0.684865
0.677815
0.657638
0.628115
0.593523
0.556943
0.520995
0.487151
0.456258
0.428653
0.404643
0.38436
0.367359
0.351905
0.332663
0.578867
0.567203
0.549653
0.519388
0.472789
0.410347
0.347047
0.319256
0.367284
0.454981
0.550789
0.638231
0.708362
0.760707
0.795323
0.808088
0.803142
0.783138
0.751597
0.712689
0.670341
0.627919
0.587299
0.549288
0.514101
0.48246
0.45458
0.430052
0.406678
0.37881
0.689493
0.678035
0.659948
0.631084
0.588021
0.531237
0.473473
0.446513
0.495577
0.593388
0.702946
0.803589
0.88442
0.945346
0.98641
1.00285
1.00047
0.981384
0.948687
0.906097
0.857738
0.807777
0.758623
0.711264
0.665932
0.622949
0.582453
0.543808
0.504429
0.460223
0.869352
0.859017
0.843334
0.819684
0.78633
0.745231
0.708403
0.69684
0.747892
0.848264
0.961399
1.06468
1.14682
1.20816
1.2484
1.26508
1.26547
1.2497
1.21998
1.17907
1.1304
1.07798
1.02468
0.971119
0.917125
0.862704
0.807381
0.750499
0.689437
0.621921
1.07483
1.07007
1.06734
1.05919
1.04381
1.02749
1.01787
1.03103
1.08518
1.17069
1.262
1.34363
1.4079
1.45488
1.48009
1.48761
1.48557
1.47136
1.44663
1.41311
1.37318
1.32905
1.2832
1.2366
1.18771
1.13704
1.08245
1.02334
0.956048
0.883105
1.1273
1.13278
1.14675
1.15425
1.14966
1.13982
1.13972
1.1636
1.21952
1.28057
1.33363
1.38095
1.41832
1.44352
1.44749
1.43792
1.4266
1.40729
1.38232
1.35345
1.32305
1.2922
1.26243
1.23446
1.20879
1.1833
1.15756
1.13285
1.10494
1.07542
0.101449
0.125068
0.137002
0.145025
0.149755
0.151935
0.152074
0.150535
0.147548
0.143422
0.138355
0.132766
0.126807
0.12088
0.114875
0.108361
0.100266
0.0910108
0.0813812
0.0717844
0.0617028
0.0505149
0.038552
0.0295897
0.0278133
0.0265272
0.0244845
0.0256573
0.0297318
0.0334896
0.164217
0.20271
0.223368
0.233703
0.237908
0.238225
0.235908
0.231663
0.225931
0.219108
0.211328
0.202967
0.193874
0.184254
0.173476
0.160631
0.144959
0.130406
0.118615
0.109055
0.0990537
0.086294
0.0693734
0.0506824
0.0405779
0.0370714
0.0354331
0.0378999
0.0459097
0.0490985
0.201644
0.249378
0.279067
0.296124
0.30431
0.306564
0.304767
0.300295
0.293944
0.286281
0.277478
0.267857
0.257166
0.245528
0.232175
0.215737
0.195448
0.176387
0.16092
0.148431
0.135746
0.119846
0.0985148
0.0736812
0.0571729
0.0504517
0.045996
0.0448924
0.0523135
0.0602311
0.222169
0.278053
0.313166
0.335718
0.34759
0.352243
0.351899
0.348486
0.343064
0.336235
0.328096
0.318809
0.308016
0.295748
0.281201
0.262627
0.239231
0.216899
0.198326
0.183006
0.167703
0.14915
0.124632
0.0955569
0.0738718
0.0643146
0.0571928
0.0519694
0.054927
0.0630782
0.230552
0.286913
0.330708
0.358295
0.373571
0.381279
0.383388
0.382199
0.379021
0.37436
0.36814
0.360305
0.350393
0.338364
0.323393
0.303483
0.277898
0.253095
0.231944
0.214082
0.196407
0.175652
0.148804
0.116819
0.0909576
0.0783445
0.0693339
0.0608362
0.0592826
0.0670776
0.2229
0.279984
0.327459
0.362012
0.384336
0.396448
0.40219
0.404656
0.405043
0.403771
0.400495
0.394965
0.386636
0.375412
0.360499
0.339743
0.312666
0.285957
0.262652
0.242531
0.222725
0.200107
0.17153
0.137569
0.108447
0.0926189
0.0820426
0.0715108
0.0666276
0.0730043
0.199215
0.257443
0.311025
0.352487
0.380307
0.39815
0.410113
0.417792
0.423219
0.426506
0.427045
0.424476
0.41819
0.408166
0.393633
0.372393
0.344402
0.31622
0.291128
0.268996
0.247255
0.223019
0.193147
0.157866
0.12627
0.10738
0.0951451
0.0833848
0.0762408
0.0810916
0.168496
0.224444
0.282135
0.329809
0.365331
0.390467
0.40813
0.42318
0.435078
0.44393
0.449132
0.450002
0.446051
0.437481
0.423561
0.402156
0.373706
0.344435
0.317855
0.293923
0.270409
0.244741
0.213887
0.177748
0.144333
0.122679
0.108657
0.0959598
0.0872787
0.0907944
0.139192
0.186236
0.244781
0.298487
0.341
0.373374
0.399619
0.421404
0.442018
0.457186
0.467634
0.472432
0.470958
0.464
0.450863
0.429582
0.401049
0.371042
0.343206
0.317638
0.292482
0.265519
0.233911
0.197265
0.162578
0.138522
0.122664
0.109023
0.0991798
0.101494
0.115558
0.150702
0.20464
0.262005
0.311339
0.351358
0.384995
0.415694
0.445363
0.46713
0.483331
0.492343
0.493516
0.488234
0.476017
0.45513
0.426807
0.396379
0.367463
0.340385
0.313688
0.285539
0.253335
0.21648
0.180973
0.154904
0.137247
0.122586
0.111702
0.112755
0.0996719
0.12336
0.16762
0.223944
0.278793
0.3264
0.367944
0.406981
0.444879
0.474604
0.496828
0.510195
0.514227
0.510628
0.499447
0.479205
0.451305
0.420712
0.390846
0.362352
0.3342
0.304939
0.27226
0.235445
0.199508
0.171816
0.152468
0.136753
0.124879
0.124496
0.092346
0.107407
0.140055
0.189335
0.246206
0.30044
0.349917
0.3971
0.443017
0.480895
0.508561
0.526429
0.533475
0.531579
0.521549
0.50219
0.474875
0.444299
0.41355
0.383708
0.354162
0.323853
0.290785
0.254198
0.218185
0.189263
0.168401
0.151647
0.138876
0.136814
0.0917889
0.101587
0.124353
0.1637
0.217129
0.275547
0.332469
0.387187
0.44014
0.485762
0.518999
0.541418
0.551594
0.551477
0.542713
0.524463
0.497854
0.467376
0.435772
0.404618
0.373721
0.342422
0.309031
0.272801
0.23701
0.207252
0.185117
0.167389
0.153751
0.149941
0.0999985
0.105645
0.119782
0.1487
0.194988
0.253819
0.316121
0.377809
0.437121
0.489832
0.528658
0.55544
0.568885
0.570743
0.563349
0.546417
0.520594
0.49021
0.45773
0.425267
0.393049
0.360806
0.327145
0.291366
0.256022
0.225795
0.202673
0.184077
0.169588
0.16402
0.116121
0.1202
0.128387
0.144671
0.180883
0.236101
0.301758
0.369468
0.434718
0.493666
0.53789
0.568824
0.585691
0.589803
0.583906
0.568479
0.543494
0.513104
0.479704
0.445895
0.412366
0.379211
0.345322
0.310056
0.275316
0.244926
0.221118
0.201786
0.186467
0.179159
0.140272
0.143213
0.147825
0.154256
0.175828
0.223797
0.290106
0.362598
0.433109
0.497516
0.546924
0.581952
0.602403
0.609123
0.604895
0.591147
0.566992
0.536437
0.502065
0.466831
0.431972
0.397915
0.363819
0.329094
0.295042
0.264723
0.240516
0.220579
0.204437
0.195536
0.171923
0.173245
0.17504
0.173865
0.18099
0.217859
0.281679
0.357426
0.432347
0.501319
0.556004
0.595274
0.619449
0.629266
0.626948
0.615038
0.591658
0.560756
0.525293
0.48854
0.452308
0.417321
0.383003
0.348787
0.315439
0.285359
0.260988
0.240526
0.223529
0.21297
0.21004
0.208939
0.206618
0.200409
0.196481
0.217666
0.276765
0.354014
0.432431
0.505388
0.565499
0.609296
0.637468
0.650939
0.650891
0.64096
0.618271
0.586835
0.55011
0.511728
0.474038
0.438062
0.403434
0.369602
0.336895
0.307165
0.28274
0.261734
0.243794
0.23142
0.253536
0.248318
0.241779
0.230501
0.218852
0.226049
0.275384
0.352336
0.433844
0.510343
0.576032
0.624748
0.657388
0.675072
0.677906
0.670051
0.647971
0.615824
0.577627
0.537508
0.498252
0.461154
0.425981
0.392305
0.360083
0.330787
0.30614
0.284402
0.265325
0.250948
0.301118
0.291338
0.280251
0.263904
0.245647
0.240717
0.278174
0.352223
0.43657
0.517101
0.588626
0.642801
0.680608
0.703157
0.7096
0.703989
0.682482
0.649491
0.609704
0.567722
0.526786
0.488238
0.452209
0.418264
0.386229
0.35708
0.331796
0.308906
0.288335
0.271661
0.352344
0.338048
0.322282
0.300754
0.275688
0.260276
0.285828
0.355098
0.441624
0.527305
0.605018
0.665403
0.709335
0.737528
0.748444
0.745366
0.724506
0.690707
0.649363
0.605455
0.562615
0.522179
0.484827
0.45006
0.41744
0.387418
0.360686
0.335924
0.313265
0.293767
0.407741
0.389032
0.368668
0.341972
0.310235
0.285753
0.299315
0.362577
0.45163
0.544849
0.628218
0.695889
0.747194
0.781958
0.798438
0.798323
0.778451
0.744247
0.701591
0.655764
0.610998
0.568273
0.528333
0.491119
0.456265
0.423898
0.394339
0.366716
0.341063
0.317848
0.468321
0.445737
0.421187
0.389735
0.351644
0.318531
0.319346
0.379393
0.472039
0.571878
0.663425
0.740058
0.80027
0.842679
0.866174
0.869652
0.851597
0.817793
0.774685
0.726976
0.678819
0.631973
0.587521
0.545769
0.506562
0.469784
0.43558
0.403688
0.373685
0.345376
0.53684
0.51153
0.483846
0.448709
0.404869
0.363119
0.351988
0.409851
0.50713
0.615761
0.718862
0.80777
0.87863
0.92982
0.962162
0.970023
0.955078
0.922184
0.877462
0.82615
0.772814
0.719843
0.668706
0.620056
0.573972
0.530467
0.489739
0.451607
0.415219
0.37974
0.619907
0.594038
0.565198
0.528091
0.480172
0.431497
0.410749
0.463803
0.568769
0.689784
0.807909
0.91078
0.993865
1.05566
1.09731
1.10906
1.09597
1.06313
1.01663
0.961357
0.902127
0.841913
0.782435
0.724856
0.66959
0.616881
0.567027
0.519824
0.474058
0.428427
0.730996
0.707493
0.68022
0.643752
0.595802
0.545338
0.519688
0.567373
0.679621
0.814792
0.948068
1.06489
1.15952
1.22998
1.27852
1.29224
1.28
1.24723
1.19959
1.14133
1.07719
1.01041
0.942947
0.876147
0.810651
0.746877
0.685257
0.625732
0.566781
0.506663
0.89138
0.872584
0.849674
0.818453
0.776303
0.733047
0.711574
0.756434
0.869479
1.01306
1.15563
1.2803
1.38063
1.45384
1.50233
1.51323
1.49959
1.46652
1.41942
1.36136
1.29639
1.22796
1.15775
1.08649
1.01448
0.941875
0.868933
0.795671
0.720746
0.642132
1.11222
1.09736
1.08059
1.0585
1.03083
1.00356
0.996097
1.0429
1.14719
1.28312
1.41953
1.53749
1.63117
1.69601
1.73114
1.72851
1.70719
1.67071
1.6249
1.57131
1.5129
1.45258
1.39148
1.32919
1.2646
1.19649
1.12386
1.04607
0.961715
0.870077
1.31449
1.3078
1.30285
1.29275
1.27681
1.26502
1.27721
1.33263
1.42497
1.53759
1.64793
1.74016
1.81057
1.85177
1.85709
1.82714
1.78974
1.74339
1.69523
1.6459
1.59772
1.55196
1.5095
1.46942
1.42936
1.38678
1.33912
1.28462
1.22108
1.14966
1.31168
1.32128
1.33308
1.33732
1.3303
1.32571
1.34226
1.39328
1.47588
1.56422
1.64227
1.707
1.75037
1.76592
1.74386
1.6931
1.64322
1.58788
1.53553
1.48753
1.44629
1.41184
1.38455
1.36352
1.34712
1.33272
1.31842
1.3033
1.28486
1.2639
0.129226
0.155566
0.166918
0.174822
0.179663
0.182106
0.182603
0.181394
0.178545
0.174233
0.168511
0.161761
0.154039
0.14575
0.136655
0.126172
0.113614
0.101365
0.0916548
0.0838835
0.0741866
0.0598878
0.042122
0.0302277
0.0247089
0.0250002
0.0254278
0.0299319
0.0347726
0.0384465
0.204565
0.246006
0.266909
0.278508
0.284547
0.287136
0.286964
0.284214
0.278949
0.271371
0.261502
0.249824
0.236175
0.220966
0.203493
0.183245
0.162251
0.148572
0.143363
0.141273
0.133272
0.113661
0.0826259
0.0465786
0.0332591
0.0326463
0.034344
0.0417046
0.0527509
0.06033
0.246606
0.297154
0.330869
0.352703
0.365931
0.372954
0.374835
0.372215
0.365868
0.356353
0.343932
0.32915
0.311933
0.292663
0.270564
0.244656
0.217854
0.200451
0.193284
0.189791
0.179623
0.155818
0.117202
0.0692851
0.0445173
0.0419138
0.0430752
0.0488923
0.0606874
0.0726482
0.266976
0.326563
0.370004
0.401547
0.422143
0.433879
0.438377
0.436767
0.430607
0.420708
0.407496
0.391419
0.372507
0.351064
0.32631
0.296833
0.266162
0.245734
0.236034
0.230183
0.21768
0.190974
0.147669
0.0925673
0.0582527
0.0517416
0.0516247
0.0550132
0.0650121
0.0783927
0.273794
0.335905
0.392772
0.43276
0.46044
0.476926
0.484571
0.48501
0.480267
0.471329
0.458666
0.442588
0.423187
0.400679
0.374291
0.342377
0.309077
0.286288
0.274146
0.265772
0.250973
0.222147
0.175868
0.116199
0.074285
0.0628705
0.0609281
0.0622708
0.0703522
0.0850886
0.270184
0.331845
0.395003
0.447977
0.483406
0.504804
0.516468
0.520417
0.518439
0.51178
0.500833
0.485815
0.466832
0.444007
0.416617
0.383018
0.348072
0.323502
0.309155
0.298301
0.281285
0.250784
0.202644
0.140085
0.0922962
0.0757459
0.0714949
0.0713924
0.0780591
0.0936169
0.258748
0.319487
0.38659
0.444792
0.488794
0.51888
0.53585
0.545001
0.547387
0.544284
0.536111
0.522999
0.505089
0.482548
0.454605
0.420004
0.384191
0.35839
0.342083
0.328822
0.309638
0.277716
0.228467
0.164248
0.112024
0.0903036
0.0834748
0.082045
0.087837
0.1035
0.237503
0.296791
0.366948
0.430819
0.481039
0.517556
0.544105
0.560354
0.56874
0.570472
0.565974
0.555425
0.539095
0.517307
0.489208
0.454258
0.4183
0.391715
0.373632
0.358009
0.336662
0.303458
0.253632
0.188746
0.133222
0.106531
0.0967821
0.0939272
0.0989851
0.114423
0.212638
0.267467
0.338605
0.40681
0.46354
0.507919
0.541536
0.568164
0.583729
0.591642
0.591581
0.584091
0.56971
0.549044
0.521215
0.486543
0.451053
0.424058
0.404308
0.386324
0.362779
0.328345
0.278327
0.213578
0.155686
0.124361
0.111389
0.106882
0.111059
0.126028
0.187073
0.23503
0.304496
0.376059
0.438941
0.490787
0.533008
0.568182
0.593588
0.608663
0.613946
0.609811
0.597669
0.578423
0.551322
0.517541
0.483028
0.455904
0.434627
0.414124
0.388296
0.352626
0.302669
0.238693
0.179286
0.143778
0.127342
0.120884
0.12389
0.138112
0.163169
0.203116
0.267919
0.34058
0.409154
0.468841
0.51985
0.564625
0.600307
0.622452
0.633757
0.633297
0.623636
0.606082
0.580196
0.547899
0.514769
0.487662
0.464804
0.441682
0.413471
0.376509
0.326756
0.264025
0.203945
0.164794
0.144738
0.13595
0.137559
0.150578
0.143261
0.175568
0.233273
0.304288
0.377186
0.444558
0.504643
0.55845
0.603948
0.63362
0.651557
0.655258
0.64826
0.632654
0.608508
0.578256
0.546781
0.519744
0.495146
0.469264
0.438547
0.400222
0.350738
0.289574
0.229567
0.187401
0.163714
0.152214
0.152192
0.163424
0.129648
0.154753
0.204313
0.271403
0.346283
0.420064
0.488762
0.551293
0.60561
0.643112
0.667928
0.676288
0.672188
0.658823
0.636964
0.609274
0.579568
0.552583
0.525972
0.497147
0.463804
0.424045
0.374838
0.315398
0.256071
0.211604
0.184405
0.16995
0.167723
0.17702
0.122754
0.142218
0.183589
0.244443
0.318423
0.396889
0.473348
0.544156
0.606126
0.651887
0.683396
0.696941
0.696124
0.68535
0.666342
0.641673
0.613626
0.58653
0.557621
0.525661
0.489593
0.448342
0.399355
0.341663
0.283452
0.237368
0.20688
0.189251
0.184362
0.191603
0.123176
0.138956
0.173483
0.225863
0.295786
0.376494
0.459339
0.537644
0.606154
0.660681
0.698578
0.717755
0.720892
0.713126
0.697509
0.676263
0.650069
0.622129
0.590534
0.555243
0.516386
0.4736
0.42472
0.368693
0.311832
0.264686
0.231167
0.210219
0.20225
0.207375
0.136413
0.149199
0.173478
0.217134
0.279995
0.360069
0.447486
0.532301
0.607092
0.669596
0.714154
0.739422
0.747352
0.743201
0.731459
0.713949
0.689277
0.659982
0.625317
0.586512
0.544821
0.500426
0.451543
0.397032
0.341607
0.293642
0.25728
0.232931
0.221479
0.224307
0.161802
0.171965
0.189645
0.217647
0.271853
0.34841
0.438339
0.528491
0.609481
0.679309
0.7309
0.7628
0.776419
0.776765
0.769468
0.755791
0.732119
0.700905
0.662818
0.62036
0.575788
0.529685
0.480778
0.427598
0.37333
0.324414
0.285257
0.257469
0.242181
0.242322
0.198353
0.204614
0.215549
0.232367
0.270873
0.341768
0.432133
0.526371
0.613547
0.690589
0.749775
0.788938
0.80915
0.815353
0.813073
0.803055
0.779716
0.746045
0.704291
0.658068
0.610531
0.563089
0.514116
0.461598
0.407558
0.357264
0.315207
0.283916
0.264735
0.261232
0.244046
0.244984
0.249431
0.254972
0.27955
0.340006
0.428868
0.525877
0.619724
0.704696
0.772056
0.819213
0.847196
0.860575
0.864181
0.857292
0.833584
0.797062