/*--------------------------------*- C++ -*----------------------------------*\
| =========                 |                                                 |
| \\      /  F ield         | OpenFOAM: The Open Source CFD Toolbox           |
|  \\    /   O peration     | Version:  5.0                                   |
|   \\  /    A nd           | Web:      www.OpenFOAM.org                      |
|    \\/     M anipulation  |                                                 |
\*---------------------------------------------------------------------------*/
FoamFile
{
    version     2.0;
    format      ascii;
    class       volScalarField;
    location    "1050/air";
    object      nut;
}
// * * * * * * * * * * * * * * * * * * * * * * * * * * * * * * * * * * * * * //

dimensions      [0 2 -1 0 0 0 0];

internalField   nonuniform List<scalar> 
243000
(
0.000119194
0.000126929
0.00012726
0.000125582
0.000122527
0.000118599
0.00011417
0.000109483
0.000104689
9.9921e-05
9.5263e-05
9.08802e-05
8.69499e-05
8.38136e-05
8.16805e-05
8.07018e-05
8.04434e-05
8.03849e-05
8.02186e-05
7.98836e-05
7.94093e-05
7.8863e-05
7.83232e-05
7.7877e-05
7.76529e-05
7.72293e-05
7.55773e-05
7.21556e-05
0.000320795
8.10181e-05
0.000527259
0.000578143
0.000598088
0.000608784
0.000612555
0.000611594
0.000607189
0.000600092
0.000590821
0.00057991
0.000567907
0.000555885
0.000544719
0.000536105
0.000530726
0.000528313
0.000524999
0.000518148
0.000507615
0.000494364
0.000479346
0.000463276
0.000446568
0.000429901
0.000414545
0.000399899
0.000380801
0.000347016
0.000316934
0.000331919
0.000558559
0.000618412
0.000642565
0.000656507
0.000662167
0.000662392
0.000658823
0.000652432
0.000643922
0.000634044
0.00062342
0.000613198
0.000604197
0.000598017
0.000594993
0.000594205
0.000590997
0.000582724
0.000569792
0.000553707
0.000535746
0.000516772
0.000497182
0.000477447
0.000458624
0.000440998
0.000421166
0.000392393
0.000358376
0.000340896
0.000545776
0.000620899
0.000657488
0.000678125
0.000687605
0.000690987
0.000689823
0.000685571
0.000679178
0.000671586
0.000663479
0.000656049
0.000650046
0.000646959
0.000646731
0.00064787
0.000645214
0.000636221
0.000621675
0.000603533
0.000583328
0.000562063
0.000540167
0.000517989
0.000496387
0.000475895
0.000454405
0.000427343
0.000394592
0.000369566
0.000513163
0.000598224
0.000647862
0.000677638
0.000694701
0.000703528
0.000706214
0.000705314
0.000702135
0.000697809
0.000693104
0.0006892
0.000686749
0.000687106
0.000689834
0.000692867
0.000690874
0.000681518
0.000665902
0.000646292
0.000624412
0.000601391
0.000577698
0.000553624
0.000529898
0.000507115
0.000483757
0.000457173
0.000425898
0.000397855
0.000481167
0.00056456
0.000620634
0.000661496
0.000687179
0.000702566
0.000711022
0.000714893
0.000715991
0.000715788
0.000715204
0.0007154
0.000716901
0.000720919
0.000726577
0.000731383
0.000730049
0.000720527
0.000704191
0.000683536
0.000660424
0.000636069
0.000611001
0.000585482
0.000560148
0.000535592
0.000510468
0.000483675
0.000453266
0.000423503
0.000451406
0.000527308
0.00058927
0.000634419
0.000667981
0.000691231
0.00070648
0.000716182
0.000722752
0.000727497
0.000731674
0.00073646
0.000742203
0.000749964
0.000758439
0.000764867
0.000764145
0.000754576
0.000737771
0.000716377
0.000692362
0.000667015
0.000640908
0.000614297
0.000587743
0.000561803
0.000535324
0.000507862
0.000477779
0.000447108
0.000443354
0.000486793
0.000554068
0.000605751
0.000643942
0.000671963
0.000694275
0.000710775
0.000723501
0.000734251
0.000743817
0.000753599
0.000763791
0.000775303
0.000786441
0.000794322
0.000794146
0.000784616
0.000767524
0.000745627
0.000720962
0.00069489
0.000668011
0.000640581
0.000613102
0.000586088
0.000558578
0.000530296
0.000500226
0.000469155
0.000464902
0.000463672
0.000516152
0.000573628
0.000618372
0.000651331
0.000676873
0.000699946
0.000719628
0.000737237
0.000752563
0.0007677
0.000782474
0.000797695
0.000811304
0.000820465
0.000820779
0.000811336
0.000794097
0.000771878
0.000746761
0.000720165
0.000692732
0.000664716
0.000636555
0.000608712
0.000580402
0.000551303
0.000521096
0.000489918
0.000494242
0.000478187
0.0004882
0.000538802
0.000590033
0.000629431
0.000659634
0.00068554
0.000711987
0.000736554
0.000758555
0.0007794
0.000798855
0.000817696
0.000833548
0.00084383
0.000844574
0.000835263
0.000817977
0.000795576
0.000770163
0.000743211
0.0007154
0.000686994
0.000658354
0.000629896
0.000600965
0.000571101
0.000540704
0.000509513
0.000525376
0.000508586
0.000488767
0.000508641
0.00055921
0.000605466
0.000641688
0.000671808
0.000701786
0.000733549
0.000762648
0.000789206
0.000813379
0.000835693
0.000853564
0.000864815
0.000865925
0.000856789
0.000839551
0.000817075
0.00079149
0.000764306
0.000736261
0.000707624
0.000678695
0.000649804
0.0006204
0.000589845
0.000559243
0.000528024
0.00055662
0.000541881
0.000518633
0.000500265
0.000530511
0.000579558
0.000622519
0.000657943
0.000691336
0.00072875
0.000765006
0.000797543
0.000826381
0.000851967
0.000871645
0.00088372
0.000885134
0.000876216
0.000859101
0.000836652
0.000810997
0.000783689
0.000755511
0.00072676
0.000697696
0.000668539
0.000638802
0.000607644
0.000576876
0.000545574
0.000587677
0.000574846
0.000553145
0.000524503
0.000515262
0.000554133
0.000602114
0.000643625
0.000681596
0.00072272
0.000766098
0.000804741
0.000838117
0.000866742
0.00088801
0.000900771
0.00090244
0.000893765
0.00087685
0.000854514
0.000828885
0.000801549
0.000773327
0.000744553
0.000715467
0.000686187
0.000656254
0.00062461
0.000593664
0.000562261
0.000618585
0.000606868
0.000586991
0.000557551
0.000523601
0.000535272
0.000581494
0.000628886
0.000672164
0.000716352
0.000766323
0.000811068
0.000848775
0.000880169
0.000902815
0.000916141
0.000918026
0.000909611
0.00089296
0.000870822
0.000845314
0.000818041
0.000789862
0.000761162
0.000732168
0.000702881
0.000672875
0.000641053
0.000609808
0.00057826
0.000649443
0.000638088
0.000619337
0.000591157
0.000553367
0.000530526
0.000563182
0.000614172
0.000662972
0.000710984
0.000766018
0.000816797
0.000858481
0.000892349
0.000916169
0.000929954
0.000932035
0.000923893
0.000907556
0.000885703
0.000860409
0.000833293
0.000805258
0.000776738
0.000747933
0.000718745
0.00068877
0.000656937
0.0006254
0.000593744
0.000680304
0.000668721
0.000650393
0.000623307
0.000585384
0.000543012
0.000551097
0.000600107
0.000654061
0.00070636
0.000765445
0.000821889
0.000867295
0.00090334
0.000928141
0.0009423
0.000944572
0.000936719
0.000920744
0.000899248
0.000874265
0.000847415
0.000819635
0.000791402
0.000762873
0.000733881
0.000704012
0.000672258
0.000640542
0.00060882
0.000711163
0.000698913
0.000680455
0.000653892
0.000616633
0.000568132
0.000548168
0.000587936
0.000645604
0.000702351
0.0007647
0.000826419
0.000875216
0.000913156
0.000938769
0.000953239
0.000955715
0.000948168
0.000932595
0.000911527
0.000886973
0.000860503
0.000833091
0.000805241
0.00077708
0.000748368
0.000718696
0.000687125
0.000655296
0.000623556
0.00074201
0.000728747
0.000709743
0.000683208
0.000646573
0.000598172
0.000557236
0.000579385
0.000637892
0.000698893
0.00076381
0.000830363
0.000882206
0.000921778
0.000948058
0.000962801
0.000965514
0.000958301
0.000943183
0.00092262
0.000898594
0.000872622
0.000845696
0.000818331
0.000790627
0.000762306
0.000732933
0.000701622
0.000669735
0.000638023
0.000772787
0.00075826
0.000738406
0.000711507
0.000675146
0.000627319
0.000575319
0.000575667
0.000631291
0.000695953
0.000762782
0.000833645
0.000888185
0.000929143
0.000955986
0.000970998
0.000973989
0.00096717
0.000952587
0.000932623
0.000909207
0.000883844
0.00085751
0.000830732
0.000803593
0.000775775
0.000746812
0.000715839
0.000683936
0.000652305
0.000803493
0.000787488
0.000766547
0.000738986
0.000702552
0.000655135
0.000598112
0.000577489
0.000626204
0.000693481
0.000761812
0.00083616
0.000893115
0.000935179
0.000962516
0.000977824
0.000981149
0.000974832
0.000960899
0.000941615
0.000918892
0.000894236
0.000868602
0.000842515
0.000816044
0.000788859
0.000760433
0.000729902
0.000698
0.000666485
0.000834125
0.000816494
0.000794284
0.000765842
0.000729089
0.000682281
0.000622582
0.000585638
0.000623087
0.000691468
0.000761219
0.000837782
0.000896755
0.000939777
0.000967585
0.000983248
0.000987017
0.000981318
0.000968153
0.000949659
0.000927725
0.000903884
0.000879057
0.000853767
0.00082808
0.000801656
0.000773919
0.000743993
0.000712065
0.000680659
0.000865001
0.000845512
0.000821832
0.000792356
0.000755138
0.00070804
0.00064694
0.0005979
0.000622034
0.000689929
0.000760827
0.000838175
0.000898837
0.000942814
0.000971066
0.000987185
0.000991533
0.000986602
0.000974349
0.000956788
0.00093577
0.000912865
0.000888976
0.000864597
0.000839809
0.000814279
0.000787417
0.000758274
0.000726294
0.000694934
0.000896735
0.000874987
0.000849627
0.000819141
0.000782562
0.000733738
0.00067082
0.000612973
0.000623091
0.00068906
0.000760738
0.000837224
0.00089872
0.000943704
0.000972641
0.000989369
0.000994466
0.000990515
0.000979376
0.000962937
0.000943018
0.000921211
0.000898425
0.000875111
0.000851359
0.000826868
0.000801054
0.000772881
0.00074097
0.000709507
0.000927833
0.000905729
0.000878897
0.000848583
0.000809857
0.00075886
0.000693911
0.000629747
0.00062663
0.000689155
0.000761066
0.000834902
0.000896361
0.000942073
0.000971662
0.000989133
0.000995184
0.000992498
0.000982796
0.000967726
0.000949168
0.000928726
0.000907301
0.000885299
0.000862799
0.000839536
0.000814931
0.000787891
0.000756627
0.000724737
0.000957675
0.000937206
0.000910632
0.000877275
0.0008361
0.000783266
0.000716511
0.0006475
0.000633253
0.000690974
0.000762509
0.000833089
0.000891752
0.000937179
0.000967108
0.000985297
0.00099248
0.000991348
0.000983321
0.000970101
0.000953313
0.000934601
0.000914875
0.000894533
0.000873658
0.000851956
0.000828801
0.000803009
0.000772594
0.000740499
0.000983809
0.000962835
0.000935064
0.000902141
0.000860959
0.000807759
0.000740148
0.000667888
0.000644338
0.000696964
0.000767679
0.00083507
0.000890403
0.000933153
0.000962107
0.000980194
0.000988442
0.000988919
0.000982839
0.000971694
0.00095684
0.000939564
0.00092085
0.000901636
0.00088262
0.000862836
0.000841455
0.000817159
0.000787929
0.000756892
0.00100313
0.000983329
0.00095899
0.00092831
0.00088869
0.000836791
0.000770315
0.00069781
0.000667292
0.000715354
0.00078448
0.000848669
0.000900601
0.00094056
0.000968313
0.000985973
0.000994722
0.000996419
0.000991989
0.000982601
0.000969421
0.000953569
0.000935945
0.000917366
0.000898422
0.000878791
0.000857874
0.000834816
0.000808135
0.000777983
0.00103617
0.00101715
0.000994362
0.000966105
0.000930081
0.000883358
0.000824138
0.00075967
0.000728544
0.000770251
0.000834829
0.000893756
0.000940759
0.00097672
0.00100183
0.00101769
0.00102568
0.00102758
0.00102393
0.00101565
0.00100368
0.000988964
0.00097232
0.000954394
0.000935637
0.000915983
0.000895029
0.000872132
0.000845952
0.000815343
0.00110198
0.00108705
0.00107046
0.00105115
0.00102742
0.000997312
0.000960058
0.000921453
0.000904184
0.000933594
0.000982297
0.00102715
0.0010624
0.00108894
0.00110697
0.00111759
0.0011222
0.00112228
0.001118
0.00111007
0.00109906
0.00108566
0.0010705
0.00105395
0.00103627
0.00101705
0.000995846
0.000972675
0.000946851
0.000916903
0.00133116
0.00133097
0.0013308
0.00132953
0.00132606
0.0013195
0.00131059
0.00130259
0.00130133
0.00130665
0.00131914
0.00133258
0.00134317
0.00135094
0.00135491
0.00135706
0.00135709
0.00135627
0.00135423
0.00135172
0.00134856
0.00134517
0.0013416
0.00133793
0.00133389
0.00132626
0.00131413
0.0013005
0.0012877
0.00127296
0.000147536
0.000157386
0.000159161
0.000157859
0.00015469
0.000150401
0.000145445
0.000140133
0.000134665
0.000129256
0.000124054
0.000119284
0.000115076
0.000111692
0.000109131
0.000107242
0.000105344
0.000103012
0.00010016
9.68106e-05
9.29332e-05
8.84322e-05
8.33132e-05
7.82412e-05
7.45384e-05
7.27674e-05
0.000320211
0.000331268
8.05887e-05
8.93818e-05
0.000571314
0.000657702
0.000663182
0.000643653
0.000615991
0.000586018
0.000557077
0.000530885
0.000508253
0.000489707
0.000474641
0.000463032
0.000453144
0.000444645
0.00043372
0.000417757
0.000392256
0.000362061
0.000334849
0.000313134
0.000296098
0.000281524
0.000266826
0.00025231
0.000242711
0.00025221
0.000293653
0.000305678
0.000320924
0.000374578
0.000934615
0.0010599
0.001108
0.00110966
0.00108994
0.00105909
0.00102538
0.000993689
0.000966595
0.000945652
0.00092969
0.000918004
0.000906526
0.000893777
0.000873237
0.000839723
0.000785224
0.000720869
0.000660388
0.000610339
0.000571427
0.000540032
0.00050761
0.000474988
0.000451285
0.000443631
0.000443271
0.000421574
0.000433835
0.0005116
0.00111927
0.00131203
0.0014047
0.00143617
0.00144186
0.00142678
0.00140561
0.00138502
0.00136934
0.00136042
0.00135603
0.00135405
0.00134773
0.00133398
0.00130555
0.00125607
0.00117498
0.0010793
0.00098728
0.00090885
0.000845237
0.00079251
0.000740828
0.00068869
0.000648182
0.000625497
0.000604187
0.000553608
0.00052147
0.000555101
0.00112979
0.00136702
0.00152679
0.00162635
0.00167581
0.0016874
0.00169265
0.00169576
0.00170437
0.00171934
0.00173663
0.00175197
0.00175494
0.00174304
0.00170874
0.00164537
0.00154091
0.00141781
0.00129804
0.0011934
0.00110631
0.00103311
0.000963082
0.000892841
0.000835487
0.000799219
0.000765975
0.000694449
0.000619937
0.000607237
0.00103657
0.00132705
0.00154845
0.00169757
0.00179136
0.00185025
0.00189725
0.00193465
0.00197926
0.00202817
0.00207497
0.00211244
0.00212819
0.00211941
0.0020805
0.00200506
0.00188038
0.00173341
0.00158919
0.00146117
0.00135272
0.00126065
0.00117402
0.00108794
0.00101503
0.000965517
0.000924749
0.00083995
0.000733808
0.000683092
0.000912873
0.00120409
0.00146271
0.00167376
0.00182657
0.0019359
0.0020218
0.00211022
0.00220345
0.00229462
0.00237725
0.00244045
0.00247033
0.00246537
0.00242219
0.00233628
0.00219433
0.00202648
0.00186093
0.00171223
0.00158468
0.00147563
0.00137424
0.00127457
0.0011879
0.00112543
0.00107634
0.000985194
0.00085784
0.000773706
0.000786137
0.00103507
0.0013155
0.00157358
0.00178317
0.00195229
0.00209252
0.00222458
0.00238692
0.00252546
0.00264901
0.00273889
0.00278422
0.00278366
0.00273584
0.00264078
0.0024842
0.00229825
0.00211404
0.00194725
0.0018028
0.0016787
0.00156438
0.00145311
0.00135454
0.00127984
0.00122093
0.00112741
0.000986475
0.000874832
0.00068787
0.000864998
0.00113546
0.00142336
0.00168139
0.00190674
0.00210984
0.00230226
0.00252379
0.00272531
0.00289373
0.0030116
0.00307227
0.00307637
0.00302354
0.00292008
0.00275149
0.00254988
0.00234945
0.00216696
0.00200773
0.00187041
0.00174492
0.00162384
0.0015152
0.0014294
0.00136022
0.00126609
0.00111625
0.000983176
0.000633412
0.000735932
0.000956027
0.00124679
0.0015407
0.00181673
0.00207866
0.002341
0.00262961
0.00290678
0.00311238
0.0032607
0.00333626
0.00334468
0.00328731
0.00317571
0.00299718
0.0027825
0.00256802
0.00237207
0.00220006
0.00205127
0.00191622
0.00178702
0.00167005
0.0015746
0.00149577
0.00140166
0.00124603
0.00109586
0.000633115
0.000673189
0.000815807
0.00107131
0.00138054
0.00169762
0.00201518
0.00234415
0.00271077
0.00306364
0.00330665
0.00348711
0.00357746
0.00358969
0.00352834
0.00340897
0.00322187
0.00299694
0.00277069
0.00256326
0.00238039
0.00222176
0.00207859
0.00194289
0.00181932
0.00171584
0.00162873
0.00153483
0.00137584
0.00121197
0.000695912
0.000688555
0.000749393
0.000931741
0.0012231
0.00156492
0.00193055
0.00232684
0.00276696
0.003194
0.00348237
0.0036914
0.00379647
0.00381215
0.00374724
0.0036207
0.00342602
0.00319402
0.0029583
0.00274133
0.00254931
0.00238242
0.00223246
0.00209172
0.00196319
0.00185332
0.00175935
0.00166622
0.00150604
0.00133103
0.000814294
0.000781169
0.00077643
0.00085839
0.00109752
0.0014353
0.00183766
0.0022946
0.00280135
0.00329981
0.00364262
0.00387637
0.00399291
0.00401223
0.00394426
0.00381136
0.00361046
0.00337366
0.00313155
0.0029071
0.00270759
0.00253376
0.00237822
0.00223377
0.00210184
0.00198721
0.00188784
0.00179603
0.00163665
0.00145272
0.00097583
0.000924128
0.000883899
0.000876292
0.00101982
0.00132583
0.00174961
0.00225355
0.00281749
0.0033867
0.00378848
0.00404241
0.00416732
0.00418926
0.00411914
0.00398098
0.00377558
0.00353589
0.00329073
0.00306107
0.00285582
0.00267643
0.00251645
0.00236928
0.00223544
0.0021176
0.0020143
0.00192297
0.00176725
0.00157678
0.00117711
0.00110966
0.00104271
0.000982337
0.000993729
0.00123914
0.00166527
0.00220611
0.00282569
0.00344945
0.00391453
0.00418839
0.00431944
0.00434238
0.0042711
0.00412917
0.00392139
0.00368101
0.0034351
0.00320362
0.00299432
0.00281079
0.00264757
0.00249878
0.00236409
0.00224449
0.00213871
0.00204722
0.00189742
0.00170277
0.00141374
0.00133145
0.00124137
0.0011411
0.00107233
0.00119246
0.00159586
0.00216359
0.00282957
0.00349626
0.00402247
0.00431285
0.00444746
0.00447057
0.00439864
0.00425501
0.0040473
0.00380877
0.00356456
0.00333346
0.00312313
0.00293697
0.0027717
0.00262246
0.00248781
0.00236775
0.00226085
0.00216963
0.00202702
0.00183029
0.00167955
0.00158273
0.00147097
0.00133793
0.00121166
0.00121816
0.00155189
0.00213031
0.002832
0.00353613
0.00411296
0.00441285
0.0045486
0.00457177
0.0044995
0.00435685
0.0041521
0.00391823
0.00367832
0.00344976
0.00324115
0.0030547
0.00288853
0.0027399
0.00260635
0.00248692
0.00238016
0.00229014
0.00215565
0.00195865
0.0019654
0.00185459
0.00172227
0.00156067
0.00138843
0.00130179
0.00153145
0.00210855
0.00283485
0.00357011
0.00417806
0.00448194
0.0046189
0.00464237
0.00457079
0.00443214
0.00423356
0.00400744
0.00377463
0.00355157
0.00334658
0.00316212
0.0029971
0.00285005
0.00271876
0.00260103
0.00249555
0.00240793
0.00228245
0.00208674
0.00225897
0.00213569
0.00198511
0.00179849
0.00158894
0.00143529
0.0015426
0.00209902
0.00283841
0.00359678
0.00421388
0.00451508
0.00465335
0.00467738
0.00460825
0.00447699
0.00428806
0.00407304
0.00385095
0.00363628
0.003437
0.0032566
0.00309493
0.00295084
0.0028231
0.00270815
0.00260516
0.00252131
0.00240588
0.0022131
0.00254492
0.00241256
0.0022478
0.0020408
0.00180116
0.00159018
0.00160521
0.00210221
0.00284012
0.0035996
0.00420843
0.00450771
0.0046452
0.00467003
0.00460568
0.00448557
0.00431021
0.00411011
0.00390235
0.00369885
0.00350803
0.00333414
0.00317784
0.00303865
0.00291547
0.00280484
0.00270595
0.00262743
0.00252346
0.00233542
0.00280593
0.00266974
0.00249699
0.00227604
0.00201364
0.0017534
0.0016875
0.00211363
0.00283098
0.00356654
0.00413759
0.00444936
0.00458483
0.004611
0.00455417
0.00444925
0.00429193
0.00411051
0.00392033
0.00373161
0.00355234
0.00338768
0.0032387
0.00310679
0.0029901
0.00288565
0.00279314
0.00272172
0.00263122
0.00245011
0.00302226
0.00289006
0.00271761
0.00249058
0.00221107
0.00191169
0.00178706
0.00211839
0.00279103
0.00347115
0.00401338
0.00432772
0.00445887
0.00448757
0.0044414
0.00435558
0.00422024
0.00406126
0.00389237
0.00372232
0.00355792
0.00340586
0.00326818
0.00314606
0.0030381
0.00294222
0.00285969
0.00279688
0.00272208
0.00255095
0.00317275
0.0030556
0.00289315
0.00266775
0.00237814
0.00205148
0.0018803
0.00212384
0.0027102
0.00332957
0.00383941
0.00412442
0.00425017
0.00428442
0.00425238
0.00418833
0.00407839
0.00394486
0.00380048
0.00365291
0.00350841
0.00337349
0.00325086
0.00314182
0.00304578
0.00296202
0.00289266
0.00284049
0.00278279
0.0026268
0.00325404
0.00314915
0.00300498
0.0027856
0.00249222
0.00215306
0.00193859
0.00208779
0.0026104
0.00313655
0.00356194
0.0038191
0.00394516
0.00399111
0.00397675
0.0039343
0.0038516
0.00374574
0.00362769
0.0035044
0.00338274
0.00326889
0.00316554
0.00307401
0.00299433
0.00292672
0.00287293
0.00283393
0.00279136
0.00265938
0.00326179
0.00316728
0.00303451
0.00282678
0.00253668
0.00219924
0.00194964
0.00198729
0.00241121
0.00283901
0.00318957
0.00342366
0.0035587
0.00362144
0.00363097
0.00360921
0.00355249
0.00347248
0.00337852
0.00327877
0.00317946
0.00308674
0.00300361
0.00293115
0.00286958
0.00281999
0.00278363
0.00275938
0.00273267
0.00262855
0.00319311
0.00311354
0.00299308
0.00279667
0.00252111
0.00219524
0.00191946
0.00185538
0.0021431
0.00249866
0.00280192
0.00302281
0.00316673
0.00325155
0.00328749
0.00328605
0.00325202
0.00319374
0.0031192
0.00303657
0.0029531
0.00287572
0.00280808
0.00275044
0.00270156
0.00266415
0.00263934
0.00262549
0.00260901
0.00252813
0.00307869
0.00301393
0.00290425
0.00273078
0.00248902
0.00220072
0.00193637
0.00181472
0.00198759
0.00227726
0.00254408
0.00275271
0.0028992
0.00299531
0.00304757
0.00305958
0.00304256
0.00300109
0.00294245
0.00287348
0.00280123
0.00273283
0.00267243
0.00262109
0.00257808
0.00254398
0.00251879
0.00249939
0.00247285
0.00239983
0.00297208
0.00292931
0.00284413
0.00270806
0.00252247
0.00230448
0.00210391
0.00198717
0.00208388
0.00229704
0.00250856
0.0026817
0.00280788
0.00289403
0.00294363
0.00295872
0.00295233
0.00292479
0.00288262
0.00283096
0.00277532
0.00272164
0.00267397
0.00263286
0.00259661
0.00256426
0.00253364
0.0025011
0.00245426
0.00236925
0.00286626
0.00284239
0.00279586
0.00271775
0.00260941
0.00247977
0.00235399
0.00227944
0.00233293
0.00246162
0.00259454
0.00270719
0.00279148
0.00284944
0.00287901
0.00288679
0.00288117
0.00286186
0.00283332
0.0027997
0.00276498
0.00273273
0.00270581
0.00268532
0.00266576
0.00264762
0.00262655
0.00259983
0.00255192
0.00247858
0.00280741
0.00280418
0.00279114
0.00275969
0.00270551
0.00263297
0.00256633
0.00252319
0.00254582
0.00259906
0.00265211
0.00270338
0.00274348
0.00277025
0.00277961
0.00277854
0.00277102
0.0027569
0.00273966
0.00272283
0.00270931
0.00270097
0.00269864
0.00270073
0.00270746
0.0027124
0.00271456
0.00271577
0.00270016
0.00266917
0.000168053
0.000179591
0.00018108
0.000179689
0.000176368
0.00017189
0.000166744
0.000161246
0.000155581
0.000149947
0.000144446
0.000139271
0.000134472
0.000130233
0.000126449
0.000122846
0.000118714
0.000114099
0.000109295
0.000104385
9.87698e-05
9.15213e-05
8.21511e-05
7.13329e-05
0.000312972
0.000317424
0.0003157
7.8621e-05
8.75205e-05
9.64686e-05
0.00065145
0.000804392
0.000855568
0.00085469
0.000835323
0.000808579
0.00077934
0.00074975
0.000720929
0.000693625
0.000666852
0.0006412
0.000613781
0.00058494
0.000550295
0.000509272
0.000460908
0.000422207
0.000398254
0.000387947
0.000382383
0.000371181
0.000340305
0.000301476
0.000346769
0.000403271
0.000335674
0.000269091
0.0003697
0.000451365
0.00104938
0.00131109
0.00144135
0.00149806
0.00151124
0.00149971
0.00147459
0.0014438
0.00141065
0.00137688
0.00134064
0.00130178
0.00125452
0.00119845
0.0011279
0.00104087
0.000937551
0.000850633
0.000789691
0.00075345
0.000730676
0.000701985
0.000639171
0.000556735
0.000542099
0.000575124
0.000509485
0.000428879
0.000525826
0.000667152
0.00131759
0.00168055
0.00185931
0.00196808
0.0020196
0.00203864
0.00203548
0.00202344
0.00200644
0.00198571
0.00195766
0.00191975
0.00186349
0.00178706
0.00168672
0.0015596
0.00140815
0.0012763
0.00117723
0.00111045
0.00106264
0.00101084
0.000920399
0.00079812
0.000741769
0.000757454
0.000701389
0.000586631
0.000632477
0.000770576
0.00147414
0.00185473
0.00213029
0.00229092
0.00238014
0.00243909
0.00247094
0.00249155
0.00250541
0.00251167
0.00250406
0.00247698
0.00241625
0.00232573
0.00220171
0.00204097
0.00184799
0.00167666
0.00154289
0.00144597
0.00137266
0.00129899
0.00118644
0.00103411
0.000942047
0.000939032
0.000894624
0.000761377
0.000736146
0.000854034
0.00150796
0.00188361
0.00219127
0.00242996
0.00260572
0.00272076
0.00280013
0.00286807
0.0029255
0.00296959
0.00299014
0.00297666
0.00291916
0.00281778
0.00267432
0.00248484
0.00225721
0.0020505
0.00188448
0.00175917
0.00166174
0.00156831
0.00143879
0.00126576
0.00114419
0.00112093
0.00108431
0.000949849
0.000872263
0.000948436
0.00144984
0.0018236
0.00217385
0.00247007
0.00270211
0.0028823
0.00303808
0.00316792
0.00328279
0.00337439
0.003428
0.00343327
0.00337882
0.00326929
0.00310932
0.0028948
0.00263836
0.00239915
0.00220328
0.00205158
0.00193189
0.00182096
0.0016787
0.00149245
0.00134793
0.00130337
0.00126961
0.00114305
0.00103063
0.0010697
0.00134554
0.00171326
0.00209057
0.00243337
0.00272821
0.00297707
0.00318937
0.00340382
0.00358937
0.00373567
0.00382794
0.00385286
0.00380136
0.00368516
0.00351101
0.00327454
0.0029933
0.00272428
0.00250076
0.00232491
0.00218507
0.00205884
0.00190717
0.00171316
0.00155206
0.00148677
0.00145135
0.00133575
0.00120343
0.00121248
0.00122626
0.00155183
0.00194254
0.00233029
0.00268328
0.0029999
0.0032947
0.0035721
0.00385625
0.0040614
0.00419525
0.00424156
0.00419097
0.00406883
0.00388267
0.00362668
0.00332344
0.0030272
0.00277839
0.00258076
0.00242299
0.00228353
0.00212514
0.00192742
0.00175533
0.00167127
0.00163079
0.0015259
0.00138449
0.00136922
0.00110839
0.00137662
0.00175707
0.00217869
0.00258917
0.00297674
0.00334831
0.00371256
0.00409393
0.00435508
0.0045335
0.00460093
0.00455166
0.00442231
0.00422645
0.00395284
0.00362944
0.00330904
0.00303748
0.00282066
0.00264721
0.00249652
0.00233332
0.00213519
0.0019566
0.0018567
0.00180876
0.00171326
0.00157007
0.00153452
0.00101626
0.00122163
0.00156726
0.00200056
0.00246109
0.00291976
0.00337281
0.00382797
0.00428415
0.00462046
0.00484264
0.00493213
0.00488589
0.00474761
0.00454343
0.00425376
0.00391154
0.00357083
0.00327945
0.00304616
0.00285932
0.00269926
0.00253235
0.00233647
0.00215487
0.00204268
0.00198594
0.00189833
0.0017589
0.00170403
0.000963979
0.0011149
0.00141134
0.00182638
0.00231883
0.00284273
0.00337859
0.00392549
0.00445779
0.00487071
0.005118
0.00523501
0.00519331
0.00504584
0.00483337
0.00452939
0.00417027
0.00381337
0.00350569
0.0032589
0.00306083
0.00289297
0.00272326
0.00253109
0.00234973
0.00222882
0.00216363
0.00208187
0.00195092
0.00187511
0.000960782
0.00106418
0.00130204
0.00169091
0.00218685
0.00276097
0.00337922
0.00400813
0.00461119
0.00508525
0.005366
0.00550788
0.00547231
0.00531676
0.00509534
0.00477903
0.00440613
0.00403742
0.00371774
0.00346045
0.00325336
0.00307868
0.00290714
0.00271952
0.00254105
0.00241479
0.00234236
0.00226439
0.00214259
0.00204923
0.00104813
0.00110032
0.00125986
0.00158618
0.00208091
0.00268752
0.00336886
0.00407555
0.00473908
0.00526709
0.00559038
0.00574804
0.00572006
0.00555882
0.00532737
0.00500161
0.00461907
0.00424384
0.00391689
0.00365213
0.00343801
0.0032575
0.00308493
0.00290259
0.002729
0.00260015
0.00252207
0.002446
0.00233118
0.00222613
0.00122788
0.00125428
0.00134242
0.00155182
0.00198734
0.00260969
0.00334753
0.00412035
0.00484131
0.00542719
0.00579435
0.0059532
0.00593264
0.0057683
0.0055265
0.00519533
0.00480877
0.00443292
0.00410395
0.00383476
0.00361532
0.00343013
0.00325731
0.0030808
0.00291352
0.00278415
0.00270208
0.00262628
0.00251644
0.00240278
0.00150268
0.00150875
0.0015429
0.00164176
0.00195146
0.00254637
0.00332069
0.00415473
0.00492922
0.00556584
0.00596429
0.00611783
0.00610428
0.0059397
0.00568837
0.00535759
0.00497426
0.00460397
0.00427867
0.00400793
0.003785
0.00359656
0.00342427
0.00325407
0.00309398
0.00296554
0.00288085
0.00280396
0.00269704
0.00257795
0.00185427
0.00183751
0.00182658
0.00182659
0.00198459
0.00251682
0.00330577
0.00418528
0.00500044
0.00567783
0.00608496
0.0062351
0.00622648
0.00606582
0.00580762
0.00548485
0.00511316
0.0047551
0.00443843
0.00416958
0.00394538
0.00375554
0.00358471
0.00342112
0.00326842
0.0031421
0.0030558
0.00297657
0.00287049
0.00274688
0.00224587
0.00220164
0.00214184
0.00208069
0.00211288
0.00251813
0.00330184
0.00421008
0.00505216
0.00575602
0.00614134
0.00629544
0.00629019
0.00613775
0.00587809
0.00557231
0.00522099
0.00488173
0.00457815
0.00431533
0.00409308
0.00390381
0.00373559
0.00357855
0.00343301
0.00331028
0.00322274
0.00314006
0.00303344
0.00290538
0.00263701
0.00255922
0.00245825
0.00234458
0.00229961
0.00255964
0.00330459
0.00422541
0.00509287
0.00576346
0.00613428
0.00628808
0.00628553
0.00614461
0.00589368
0.00561346
0.00529051
0.00497596
0.0046896
0.00443758
0.00422111
0.00403512
0.00387094
0.0037207
0.00358258
0.00346451
0.00337524
0.00328832
0.0031806
0.00304902
0.00299478
0.00288583
0.00275126
0.00259802
0.00250047
0.00263847
0.00331176
0.00422274
0.00506181
0.00566499
0.00604894
0.00620049
0.00620238
0.0060773
0.00584624
0.0055998
0.00531151
0.005026
0.00476136
0.00452477
0.00431812
0.00413898
0.0039813
0.0038386
0.00370818
0.00359487
0.0035039
0.0034129
0.00330463
0.00317139
0.00329679
0.00316369
0.00300372
0.00282068
0.00267381
0.00271258
0.00328685
0.004144
0.004916
0.00549088
0.00587334
0.00602053
0.00603237
0.00592927
0.00572791
0.00552153
0.00527133
0.00501788
0.00477904
0.00456146
0.00436876
0.00420011
0.00405139
0.00391754
0.00379551
0.00368745
0.00359604
0.00350283
0.00339606
0.00326371
0.0035306
0.00338049
0.00320323
0.00299831
0.00281241
0.00278786
0.00324241
0.00397503
0.00468759
0.00525577
0.00559485
0.00574347
0.00577238
0.00569759
0.00553443
0.00537032
0.00515925
0.00493976
0.00472804
0.0045317
0.00435492
0.00419898
0.00406184
0.00393925
0.00382764
0.00372687
0.00363702
0.00354584
0.00344399
0.00331539
0.00368687
0.00352832
0.00334164
0.00312179
0.00290458
0.00282502
0.00312012
0.00378538
0.00441345
0.00490877
0.00521735
0.00537679
0.00542958
0.00538907
0.00527164
0.00514764
0.00497515
0.00478856
0.00460286
0.0044272
0.00426815
0.00412715
0.00400323
0.00389307
0.00379317
0.00370137
0.00361627
0.00353158
0.00343821
0.00331637
0.00376228
0.00360482
0.00341644
0.00318748
0.00294399
0.00279935
0.00293484
0.00350638
0.00404552
0.004477
0.00477242
0.00495079
0.00503267
0.00503263
0.00496409
0.00487632
0.00473963
0.0045837
0.00442346
0.00426806
0.00412509
0.00399724
0.00388456
0.00378478
0.00369474
0.00361182
0.00353438
0.00345827
0.00337459
0.00326139
0.00376469
0.00361837
0.00343663
0.00320669
0.00294566
0.00273957
0.002738
0.003142
0.00362167
0.00402337
0.00432638
0.004525
0.00463941
0.00468108
0.00465862
0.00460111
0.00449535
0.00436651
0.00422936
0.00409229
0.00396296
0.00384536
0.00374043
0.00364706
0.00356286
0.00348554
0.00341355
0.00334345
0.00326603
0.00315831
0.00371933
0.00359355
0.00342899
0.00321299
0.00295372
0.00271308
0.00261354
0.00284819
0.0032616
0.00365021
0.00395778
0.00417626
0.00431776
0.00439088
0.00440233
0.00436564
0.00428303
0.00417629
0.00405935
0.00393936
0.00382348
0.00371611
0.00361874
0.00353081
0.00345041
0.0033756
0.00330494
0.0032352
0.00315658