/*--------------------------------*- C++ -*----------------------------------*\
| =========                 |                                                 |
| \\      /  F ield         | OpenFOAM: The Open Source CFD Toolbox           |
|  \\    /   O peration     | Version:  5.0                                   |
|   \\  /    A nd           | Web:      www.OpenFOAM.org                      |
|    \\/     M anipulation  |                                                 |
\*---------------------------------------------------------------------------*/
FoamFile
{
    version     2.0;
    format      ascii;
    class       volScalarField;
    location    "650/porous";
    object      T;
}
// * * * * * * * * * * * * * * * * * * * * * * * * * * * * * * * * * * * * * //

dimensions      [0 0 0 1 0 0 0];

internalField   nonuniform List<scalar> 
36000
(
400
400
400
400
399.999
399.575
399.195
398.844
398.512
398.193
397.882
397.577
397.278
396.982
396.689
396.4
396.114
395.831
395.551
395.275
395.002
394.731
394.459
394.184
393.907
393.631
393.355
393.082
392.812
392.545
392.281
392.022
391.767
391.516
391.278
391.808
392.166
392.437
392.658
392.844
400
400
400
400
399.999
399.625
399.291
398.984
398.696
398.422
398.158
397.901
397.651
397.405
397.165
396.928
396.695
396.465
396.239
396.018
395.8
395.584
395.367
395.148
394.927
394.707
394.489
394.272
394.059
393.848
393.641
393.437
393.237
393.042
392.853
393.201
393.445
393.632
393.782
393.913
400
400
400
400
399.999
399.632
399.305
399.008
398.731
398.469
398.219
397.977
397.743
397.515
397.293
397.076
396.864
396.656
396.453
396.254
396.06
395.868
395.675
395.481
395.285
395.09
394.898
394.708
394.52
394.337
394.156
393.98
393.808
393.64
393.48
393.8
394.028
394.204
394.345
394.467
400
400
400
400
399.999
399.631
399.304
399.008
398.733
398.473
398.225
397.987
397.757
397.534
397.317
397.106
396.9
396.699
396.503
396.312
396.124
395.94
395.755
395.567
395.38
395.194
395.01
394.828
394.65
394.475
394.304
394.137
393.974
393.817
393.666
393.981
394.207
394.382
394.523
394.644
400
400
400
400
399.999
399.63
399.304
399.008
398.733
398.474
398.227
397.989
397.761
397.539
397.325
397.116
396.912
396.713
396.519
396.329
396.143
395.961
395.777
395.592
395.407
395.224
395.043
394.864
394.688
394.516
394.348
394.184
394.025
393.871
393.724
394.036
394.262
394.437
394.579
394.699
400
400
400
400
399.999
399.629
399.302
399.006
398.731
398.471
398.224
397.987
397.759
397.539
397.326
397.118
396.915
396.716
396.522
396.332
396.145
395.961
395.779
395.594
395.41
395.228
395.048
394.87
394.694
394.523
394.356
394.193
394.034
393.881
393.736
394.048
394.273
394.448
394.59
394.71
400
400
400
400
399.999
399.629
399.302
399.006
398.731
398.472
398.225
397.989
397.762
397.543
397.331
397.124
396.922
396.723
396.527
396.335
396.146
395.962
395.779
395.596
395.412
395.231
395.051
394.873
394.699
394.527
394.36
394.197
394.039
393.886
393.741
394.053
394.278
394.453
394.595
394.715
400
400
400
400
399.999
399.629
399.302
399.006
398.731
398.472
398.225
397.989
397.763
397.546
397.336
397.129
396.927
396.727
396.529
396.333
396.142
395.956
395.773
395.591
395.409
395.228
395.049
394.872
394.697
394.526
394.359
394.196
394.037
393.885
393.739
394.051
394.276
394.451
394.593
394.713
400
400
400
400
399.999
399.629
399.303
399.007
398.732
398.474
398.227
397.992
397.768
397.552
397.343
397.138
396.934
396.732
396.531
396.333
396.14
395.951
395.768
395.587
395.407
395.227
395.049
394.872
394.698
394.527
394.359
394.196
394.038
393.885
393.739
394.051
394.276
394.45
394.592
394.712
400
400
400
400
399.999
399.629
399.303
399.008
398.734
398.475
398.229
397.995
397.771
397.557
397.349
397.144
396.939
396.734
396.53
396.329
396.134
395.943
395.759
395.579
395.4
395.222
395.045
394.869
394.695
394.524
394.356
394.193
394.035
393.881
393.735
394.047
394.272
394.447
394.589
394.709
400
400
400
400
399.999
399.631
399.306
399.01
398.736
398.478
398.233
397.999
397.776
397.563
397.355
397.149
396.942
396.734
396.528
396.326
396.129
395.936
395.75
395.571
395.394
395.218
395.042
394.867
394.693
394.523
394.355
394.192
394.033
393.88
393.732
394.045
394.27
394.444
394.586
394.707
400
400
400
400
399.999
399.632
399.307
399.012
398.738
398.48
398.235
398.001
397.778
397.566
397.358
397.151
396.942
396.731
396.524
396.322
396.125
395.93
395.742
395.563
395.388
395.213
395.039
394.864
394.692
394.521
394.354
394.19
394.031
393.877
393.729
394.042
394.267
394.442
394.584
394.704
400
400
400
400
399.999
399.633
399.309
399.015
398.741
398.483
398.237
398.003
397.78
397.567
397.359
397.151
396.94
396.729
396.522
396.321
396.124
395.929
395.74
395.559
395.385
395.213
395.04
394.866
394.694
394.523
394.356
394.192
394.033
393.878
393.729
394.041
394.267
394.441
394.584
394.704
400
400
400
400
399.999
399.634
399.311
399.016
398.742
398.484
398.238
398.004
397.78
397.566
397.358
397.149
396.937
396.726
396.52
396.319
396.122
395.928
395.739
395.557
395.383
395.213
395.041
394.869
394.697
394.526
394.359
394.195
394.035
393.879
393.728
394.041
394.267
394.442
394.584
394.704
400
400
400
400
399.999
399.635
399.312
399.018
398.744
398.485
398.239
398.004
397.779
397.564
397.355
397.145
396.934
396.724
396.518
396.317
396.121
395.927
395.738
395.556
395.382
395.213
395.043
394.872
394.7
394.53
394.362
394.198
394.038
393.881
393.729
394.042
394.268
394.443
394.585
394.705
400
400
400
400
399.999
399.637
399.315
399.021
398.746
398.487
398.24
398.004
397.778
397.561
397.351
397.142
396.931
396.721
396.516
396.315
396.118
395.925
395.736
395.554
395.381
395.213
395.045
394.875
394.704
394.533
394.365
394.201
394.04
393.881
393.726
394.04
394.267
394.442
394.584
394.704
400
400
400
400
399.999
399.638
399.316
399.022
398.747
398.487
398.24
398.003
397.776
397.558
397.347
397.138
396.928
396.718
396.512
396.312
396.115
395.922
395.732
395.551
395.379
395.213
395.046
394.876
394.705
394.535
394.367
394.202
394.04
393.881
393.725
394.039
394.266
394.441
394.583
394.703
400
400
400
400
399.999
399.639
399.317
399.023
398.748
398.488
398.24
398.002
397.774
397.555
397.342
397.134
396.926
396.716
396.51
396.309
396.113
395.919
395.73
395.551
395.379
395.214
395.048
394.878
394.707
394.537
394.368
394.203
394.041
393.881
393.723
394.038
394.265
394.44
394.582
394.703
400
400
400
400
399.999
399.64
399.319
399.024
398.749
398.489
398.24
398.002
397.773
397.552
397.338
397.13
396.923
396.715
396.509
396.309
396.112
395.918
395.731
395.552
395.382
395.216
395.05
394.881
394.709
394.539
394.37
394.204
394.041
393.879
393.721
394.036
394.263
394.439
394.581
394.702
400
400
400
400
399.999
399.64
399.32
399.025
398.75
398.49
398.241
398.002
397.772
397.55
397.335
397.127
396.922
396.717
396.512
396.312
396.116
395.923
395.738
395.561
395.39
395.223
395.056
394.886
394.714
394.543
394.374
394.207
394.043
393.881
393.722
394.038
394.265
394.441
394.584
394.704
400
400
400
400
399.999
399.641
399.321
399.027
398.751
398.49
398.241
398.001
397.771
397.548
397.332
397.124
396.92
396.718
396.516
396.317
396.122
395.932
395.748
395.571
395.399
395.23
395.06
394.889
394.717
394.545
394.375
394.209
394.044
393.881
393.721
394.037
394.265
394.441
394.584
394.705
400
400
400
400
399.999
399.642
399.322
399.028
398.752
398.491
398.242
398.002
397.77
397.547
397.331
397.122
396.919
396.719
396.521
396.324
396.131
395.942
395.76
395.582
395.408
395.237
395.065
394.892
394.719
394.548
394.378
394.211
394.046
393.882
393.722
394.039
394.267
394.443
394.586
394.707
400
400
400
400
399.999
399.642
399.322
399.028
398.753
398.492
398.242
398.002
397.77
397.546
397.329
397.119
396.916
396.719
396.523
396.329
396.138
395.951
395.768
395.59
395.413
395.239
395.066
394.892
394.718
394.546
394.376
394.209
394.044
393.88
393.72
394.037
394.265
394.442
394.585
394.706
400
400
400
400
399.999
399.643
399.323
399.03
398.755
398.494
398.244
398.003
397.771
397.547
397.33
397.119
396.916
396.72
396.527
396.336
396.146
395.96
395.777
395.597
395.419
395.242
395.067
394.892
394.718
394.546
394.377
394.209
394.044
393.88
393.719
394.037
394.266
394.442
394.586
394.707
400
400
400
400
399.999
399.643
399.324
399.03
398.755
398.494
398.244
398.003
397.771
397.546
397.328
397.118
396.915
396.719
396.528
396.338
396.15
395.964
395.78
395.598
395.418
395.24
395.063
394.887
394.713
394.541
394.371
394.204
394.038
393.874
393.713
394.031
394.26
394.437
394.58
394.702
400
400
400
400
399.999
399.644
399.325
399.032
398.757
398.497
398.247
398.006
397.773
397.548
397.33
397.119
396.916
396.721
396.53
396.341
396.153
395.966
395.781
395.597
395.415
395.236
395.057
394.88
394.705
394.533
394.362
394.194
394.028
393.863
393.702
394.02
394.249
394.426
394.569
394.69
400
400
400
400
399.999
399.644
399.325
399.031
398.756
398.495
398.245
398.003
397.77
397.543
397.324
397.112
396.907
396.71
396.518
396.328
396.138
395.948
395.759
395.573
395.388
395.205
395.023
394.844
394.666
394.491
394.318
394.147
393.978
393.81
393.646
393.965
394.195
394.371
394.515
394.636
400
400
400
400
399.999
399.644
399.324
399.03
398.753
398.49
398.237
397.993
397.755
397.524
397.3
397.083
396.872
396.669
396.471
396.273
396.075
395.878
395.681
395.486
395.293
395.101
394.911
394.723
394.537
394.353
394.171
393.99
393.812
393.635
393.461
393.786
394.017
394.195
394.338
394.46
400
400
400
400
399.999
399.636
399.308
399.003
398.716
398.441
398.174
397.915
397.661
397.413
397.171
396.934
396.703
396.479
396.258
396.037
395.816
395.594
395.373
395.153
394.935
394.717
394.502
394.288
394.076
393.865
393.657
393.449
393.244
393.039
392.839
393.191
393.438
393.627
393.777
393.909
400
400
400
400
399.999
399.586
399.212
398.863
398.531
398.209
397.896
397.588
397.285
396.987
396.693
396.405
396.122
395.845
395.57
395.295
395.018
394.741
394.465
394.189
393.915
393.642
393.37
393.101
392.833
392.566
392.302
392.039
391.777
391.517
391.264
391.799
392.159
392.432
392.654
392.841
400
400
400
400
399.999
399.774
399.521
399.251
398.973
398.691
398.407
398.123
397.839
397.556
397.273
396.992
396.713
396.435
396.159
395.885
395.614
395.345
395.075
394.804
394.531
394.257
393.984
393.712
393.443
393.175
392.911
392.649
392.391
392.138
391.892
392.14
392.377
392.589
392.776
392.939
400
400
400
400
400
399.806
399.592
399.366
399.134
398.9
398.665
398.431
398.199
397.968
397.74
397.513
397.289
397.067
396.847
396.63
396.416
396.204
395.992
395.779
395.565
395.351
395.138
394.925
394.715
394.507
394.301
394.098
393.898
393.701
393.509
393.623
393.745
393.862
393.969
394.07
400
400
400
400
400
399.811
399.603
399.385
399.163
398.941
398.719
398.5
398.284
398.07
397.86
397.653
397.449
397.248
397.05
396.856
396.666
396.477
396.289
396.101
395.912
395.723
395.536
395.35
395.166
394.985
394.806
394.63
394.458
394.289
394.125
394.226
394.335
394.441
394.538
394.63
400
400
400
400
400
399.81
399.602
399.385
399.164
398.944
398.725
398.509
398.296
398.087
397.881
397.68
397.482
397.287
397.096
396.909
396.725
396.544
396.364
396.183
396.002
395.822
395.643
395.466
395.291
395.118
394.948
394.782
394.619
394.46
394.306
394.406
394.513
394.618
394.716
394.806
400
400
400
400
400
399.81
399.602
399.385
399.164
398.944
398.726
398.51
398.299
398.091
397.887
397.688
397.492
397.299
397.11
396.925
396.743
396.564
396.385
396.207
396.028
395.851
395.674
395.5
395.328
395.158
394.991
394.828
394.668
394.512
394.361
394.461
394.568
394.673
394.771
394.862
400
400
400
400
400
399.809
399.6
399.383
399.162
398.941
398.723
398.508
398.296
398.089
397.886
397.688
397.492
397.3
397.112
396.926
396.744
396.564
396.386
396.208
396.03
395.854
395.678
395.504
395.333
395.164
394.998
394.835
394.676
394.521
394.372
394.472
394.579
394.684
394.782
394.873
400
400
400
400
400
399.809
399.6
399.383
399.162
398.941
398.723
398.508
398.297
398.091
397.89
397.692
397.497
397.305
397.116
396.93
396.746
396.566
396.387
396.209
396.032
395.856
395.681
395.508
395.336
395.167
395.002
394.839
394.68
394.526
394.376
394.476
394.584
394.688
394.786
394.877
400
400
400
400
400
399.809
399.6
399.382
399.161
398.941
398.722
398.508
398.298
398.092
397.892
397.694
397.5
397.308
397.117
396.929
396.744
396.562
396.383
396.205
396.028
395.852
395.678
395.505
395.334
395.165
394.999
394.837
394.678
394.523
394.374
394.474
394.581
394.686
394.784
394.875
400
400
400
400
400
399.809
399.6
399.383
399.162
398.942
398.724
398.51
398.3
398.096
397.897
397.7
397.506
397.313
397.121
396.931
396.743
396.56
396.38
396.202
396.026
395.851
395.677
395.504
395.334
395.165
394.999
394.837
394.678
394.523
394.374
394.474
394.581
394.686
394.784
394.875
400
400
400
400
400
399.809
399.6
399.383
399.163
398.943
398.725
398.511
398.302
398.099
397.9
397.704
397.509
397.314
397.12
396.929
396.74
396.554
396.373
396.195
396.02
395.845
395.672
395.5
395.33
395.161
394.996
394.833
394.674
394.52
394.37
394.47
394.577
394.682
394.78
394.871
400
400
400
400
400
399.81
399.602
399.385
399.165
398.945
398.727
398.514
398.306
398.103
397.905
397.709
397.513
397.316
397.121
396.928
396.737
396.55
396.367
396.189
396.014
395.841
395.669
395.497
395.327
395.16
394.994
394.832
394.673
394.518
394.367
394.467
394.575
394.68
394.778
394.869
400
400
400
400
400
399.81
399.602
399.386
399.166
398.946
398.728
398.515
398.307
398.105
397.907
397.71
397.513
397.315
397.118
396.925
396.734
396.545
396.361
396.183
396.008
395.836
395.664
395.494
395.325
395.157
394.992
394.829
394.67
394.515
394.364
394.464
394.572
394.677
394.775
394.866
400
400
400
400
400
399.811
399.604
399.387
399.167
398.948
398.73
398.517
398.309
398.107
397.908
397.711
397.512
397.314
397.117
396.924
396.733
396.545
396.36
396.18
396.006
395.835
395.664
395.494
395.326
395.158
394.993
394.831
394.672
394.516
394.364
394.464
394.572
394.677
394.775
394.866
400
400
400
400
400
399.811
399.605
399.388
399.169
398.949
398.731
398.518
398.309
398.106
397.907
397.709
397.51
397.312
397.115
396.922
396.731
396.543
396.358
396.178
396.004
395.834
395.664
395.495
395.327
395.16
394.995
394.833
394.673
394.517
394.365
394.465
394.572
394.677
394.775
394.866
400
400
400
400
400
399.812
399.605
399.389
399.17
398.95
398.732
398.518
398.309
398.105
397.906
397.707
397.508
397.309
397.113
396.92
396.73
396.542
396.357
396.177
396.003
395.834
395.665
395.497
395.329
395.163
394.998
394.835
394.676
394.519
394.366
394.466
394.573
394.678
394.776
394.867
400
400
400
400
400
399.813
399.607
399.391
399.172
398.951
398.733
398.519
398.309
398.104
397.903
397.705
397.506
397.307
397.111
396.918
396.728
396.54
396.355
396.175
396.002
395.833
395.666
395.499
395.331
395.165
395
394.838
394.678
394.52
394.365
394.465
394.572
394.677
394.775
394.866
400
400
400
400
400
399.813
399.608
399.392
399.172
398.952
398.733
398.518
398.307
398.102
397.9
397.702
397.503
397.304
397.108
396.915
396.725
396.537
396.352
396.173
396
395.832
395.665
395.499
395.332
395.166
395.001
394.838
394.678
394.52
394.364
394.464
394.572
394.676
394.774
394.866
400
400
400
400
400
399.814
399.609
399.393
399.173
398.953
398.734
398.518
398.307
398.1
397.898
397.699
397.501
397.303
397.106
396.913
396.723
396.535
396.35
396.172
395.999
395.832
395.666
395.5
395.334
395.167
395.003
394.84
394.679
394.52
394.364
394.464
394.571
394.676
394.774
394.865
400
400
400
400
400
399.814
399.609
399.394
399.174
398.953
398.734
398.518
398.306
398.099
397.896
397.696
397.499
397.301
397.105
396.912
396.722
396.534
396.35
396.172
396.001
395.834
395.668
395.502
395.335
395.169
395.004
394.841
394.68
394.52
394.363
394.462
394.57
394.675
394.773
394.864
400
400
400
400
400
399.815
399.61
399.395
399.175
398.954
398.735
398.519
398.306
398.098
397.894
397.695
397.498
397.302
397.107
396.915
396.725
396.538
396.356
396.179
396.008
395.84
395.674
395.507
395.34
395.174
395.008
394.845
394.683
394.523
394.365
394.465
394.572
394.677
394.776
394.867
400
400
400
400
400
399.815
399.611
399.396
399.176
398.955
398.736
398.519
398.306
398.097
397.892
397.692
397.496
397.302
397.109
396.918
396.729
396.544
396.363
396.187
396.015
395.846
395.679
395.512
395.344
395.177
395.011
394.847
394.685
394.524
394.365
394.465
394.573
394.678
394.776
394.867
400
400
400
400
400
399.815
399.611
399.396
399.177
398.956
398.737
398.52
398.307
398.097
397.892
397.692
397.496
397.303
397.112
396.923
396.736
396.552
396.372
396.196
396.024
395.854
395.685
395.517
395.348
395.181
395.015
394.85
394.688
394.527
394.368
394.467
394.575
394.68
394.779
394.87
400
400
400
400
400
399.816
399.612
399.397
399.178
398.957
398.737
398.52
398.306
398.097
397.891
397.69
397.494
397.302
397.113
396.925
396.74
396.558
396.379
396.203
396.029
395.858
395.688
395.518
395.349
395.181
395.014
394.85
394.687
394.526
394.366
394.466
394.574
394.679
394.778
394.869
400
400
400
400
400
399.816
399.613
399.398
399.179
398.959
398.739
398.522
398.309
398.099
397.893
397.692
397.496
397.305
397.117
396.931
396.747
396.565
396.387
396.21
396.036
395.863
395.692
395.521
395.351
395.183
395.016
394.852
394.689
394.527
394.367
394.467
394.575
394.68
394.779
394.871
400
400
400
400
400
399.816
399.613
399.399
399.18
398.959
398.74
398.523
398.309
398.099
397.893
397.691
397.495
397.304
397.117
396.932
396.749
396.568
396.389
396.211
396.036
395.862
395.689
395.518
395.347
395.179
395.012
394.847
394.684
394.522
394.362
394.462
394.57
394.675
394.774
394.865
400
400
400
400
400
399.817
399.614
399.4
399.182
398.962
398.743
398.526
398.312
398.102
397.895
397.694
397.497
397.306
397.119
396.935
396.752
396.571
396.391
396.212
396.035
395.86
395.686
395.513
395.342
395.172
395.005
394.839
394.675
394.512
394.352
394.452
394.559
394.664
394.763
394.854
400
400
400
400
400
399.817
399.614
399.4
399.181
398.961
398.741
398.524
398.309
398.097
397.89
397.687
397.489
397.297
397.108
396.922
396.737
396.554
396.371
396.19
396.01
395.831
395.654
395.479
395.305
395.132
394.962
394.793
394.626
394.46
394.297
394.397
394.505
394.61
394.708
394.8
400
400
400
400
400
399.817
399.614
399.399
399.179
398.957
398.735
398.514
398.296
398.081
397.869
397.661
397.457
397.259
397.064
396.871
396.679
396.488
396.297
396.108
395.92
395.733
395.547
395.363
395.18
394.999
394.819
394.642
394.465
394.29
394.117
394.218
394.328
394.434
394.532
394.625
400
400
400
400
400
399.812
399.602
399.379
399.148
398.914
398.679
398.444
398.21
397.977
397.747
397.52
397.297
397.078
396.861
396.646
396.431
396.215
396
395.786
395.573
395.36
395.149
394.938
394.729
394.522
394.316
394.111
393.907
393.705
393.504
393.618
393.74
393.858
393.966
394.067
400
400
400
400
399.999
399.78
399.531
399.264
398.987
398.705
398.42
398.134
397.848
397.562
397.279
396.998
396.72
396.446
396.174
395.902
395.63
395.356
395.083
394.81
394.538
394.267
393.997
393.728
393.46
393.194
392.929
392.666
392.404
392.143
391.886
392.135
392.372
392.585
392.773
392.937
400
400
400
400
400
399.859
399.697
399.518
399.322
399.114
398.895
398.667
398.432
398.192
397.947
397.699
397.448
397.195
396.941
396.687
396.433
396.178
395.922
395.664
395.404
395.142
394.881
394.619
394.357
394.097
393.838
393.581
393.326
393.075
392.828
392.9
392.994
393.098
393.204
393.302
400
400
400
400
400
399.878
399.743
399.595
399.437
399.27
399.095
398.915
398.731
398.543
398.352
398.16
397.966
397.771
397.576
397.381
397.186
396.992
396.797
396.6
396.403
396.205
396.006
395.808
395.611
395.414
395.218
395.024
394.832
394.642
394.455
394.455
394.469
394.494
394.525
394.56
400
400
400
400
400
399.881
399.75
399.608
399.457
399.3
399.137
398.969
398.799
398.627
398.453
398.278
398.104
397.929
397.755
397.582
397.41
397.239
397.068
396.896
396.723
396.55
396.378
396.206
396.035
395.865
395.696
395.53
395.365
395.203
395.044
395.045
395.057
395.078
395.104
395.135
400
400
400
400
400
399.881
399.749
399.608
399.458
399.302
399.141
398.976
398.809
398.64
398.471
398.301
398.132
397.963
397.795
397.628
397.463
397.299
397.135
396.97
396.805
396.641
396.476
396.313
396.15
395.989
395.83
395.673
395.517
395.365
395.215
395.219
395.233
395.255
395.282
395.314
400
400
400
400
400
399.881
399.749
399.608
399.458
399.302
399.142
398.978
398.811
398.644
398.476
398.308
398.14
397.973
397.807
397.642
397.479
397.317
397.155
396.992
396.83
396.668
396.506
396.345
396.185
396.027
395.871
395.716
395.564
395.415
395.268
395.273
395.288
395.311
395.339
395.371
400
400
400
400
400
399.88
399.749
399.607
399.457
399.3
399.139
398.975
398.809
398.642
398.474
398.306
398.139
397.973
397.807
397.642
397.479
397.317
397.155
396.993
396.831
396.669
396.509
396.348
396.189
396.032
395.876
395.723
395.571
395.423
395.277
395.283
395.298
395.321
395.349
395.382
400
400
400
400
400
399.88
399.748
399.607
399.457
399.3
399.139
398.975
398.81
398.643
398.476
398.309
398.142
397.976
397.81
397.645
397.481
397.318
397.156
396.994
396.833
396.671
396.511
396.351
396.192
396.035
395.88
395.726
395.575
395.427
395.282
395.287
395.303
395.326
395.354
395.387
400
400
400
400
400
399.88
399.748
399.606
399.456
399.3
399.139
398.975
398.809
398.643
398.476
398.31
398.143
397.977
397.81
397.644
397.479
397.315
397.153
396.991
396.829
396.668
396.507
396.348
396.189
396.032
395.876
395.723
395.572
395.424
395.279
395.284
395.3
395.323
395.351
395.384
400
400
400
400
400
399.88
399.749
399.607
399.457
399.3
399.14
398.976
398.811
398.645
398.48
398.314
398.147
397.98
397.813
397.646
397.479
397.315
397.151
396.989
396.828
396.667
396.507
396.347
396.189
396.032
395.876
395.723
395.572
395.423
395.278
395.284
395.299
395.322
395.35
395.384
400
400
400
400
400
399.88
399.749
399.607
399.457
399.301
399.14
398.976
398.812
398.647
398.482
398.316
398.149
397.981
397.813
397.644
397.477
397.311
397.147
396.984
396.823
396.662
396.502
396.343
396.185
396.028
395.872
395.719
395.568
395.419
395.274
395.279
395.295
395.318
395.346
395.379
400
400
400
400
400
399.881
399.75
399.608
399.458
399.302
399.142
398.978
398.814
398.65
398.485
398.319
398.152
397.983
397.814
397.645
397.476
397.309
397.143
396.981
396.819
396.659
396.499
396.34
396.182
396.026
395.87
395.717
395.566
395.417
395.272
395.277
395.293
395.316
395.344
395.377
400
400
400
400
400
399.881
399.75
399.609
399.459
399.303
399.142
398.979
398.815
398.651
398.486
398.32
398.152
397.982
397.812
397.642
397.474
397.305
397.139
396.976
396.815
396.655
396.495
396.337
396.179
396.022
395.867
395.714
395.563
395.414
395.269
395.274
395.29
395.313
395.341
395.374
400
400
400
400
400
399.881
399.751
399.61
399.46
399.304
399.144
398.981
398.816
398.652
398.487
398.321
398.152
397.982
397.812
397.642
397.473
397.305
397.138
396.974
396.813
396.654
396.495
396.337
396.18
396.023
395.868
395.715
395.564
395.415
395.269
395.274
395.29
395.313
395.341
395.374
400
400
400
400
400
399.882
399.751
399.61
399.461
399.305
399.144
398.981
398.817
398.652
398.487
398.32
398.151
397.981
397.81
397.641
397.472
397.304
397.137
396.973
396.812
396.653
396.495
396.337
396.18
396.024
395.869
395.716
395.565
395.416
395.269
395.274
395.29
395.313
395.341
395.375
400
400
400
400
400
399.882
399.752
399.611
399.462
399.306
399.145
398.981
398.816
398.651
398.486
398.319
398.15
397.979
397.809
397.639
397.47
397.302
397.136
396.971
396.811
396.652
396.495
396.338
396.181
396.025
395.871
395.718
395.566
395.417
395.27
395.275
395.291
395.314
395.343
395.376
400
400
400
400
400
399.883
399.753
399.612
399.463
399.307
399.146
398.982
398.817
398.651
398.485
398.317
398.148
397.978
397.807
397.638
397.469
397.301
397.134
396.97
396.809
396.651
396.495
396.338
396.182
396.026
395.872
395.719
395.568
395.418
395.27
395.275
395.291
395.314
395.342
395.375
400
400
400
400
400
399.883
399.753
399.613
399.463
399.307
399.146
398.982
398.816
398.65
398.483
398.315
398.146
397.976
397.805
397.635
397.467
397.298
397.132
396.968
396.807
396.65
396.494
396.338
396.182
396.026
395.872
395.719
395.568
395.417
395.269
395.274
395.29
395.313
395.341
395.374
400
400
400
400
400
399.883
399.754
399.613
399.464
399.308
399.147
398.982
398.816
398.649
398.482
398.314
398.145
397.975
397.804
397.634
397.465
397.297
397.13
396.967
396.807
396.65
396.494
396.338
396.183
396.028
395.873
395.72
395.568
395.418
395.269
395.274
395.29
395.313
395.341
395.374
400
400
400
400
400
399.884
399.754
399.614
399.465
399.308
399.147
398.982
398.816
398.648
398.48
398.312
398.144
397.974
397.803
397.633
397.465
397.296
397.13
396.967
396.808
396.651
396.495
396.34
396.184
396.029
395.874
395.721
395.569
395.418
395.269
395.274
395.289
395.312
395.341
395.374
400
400
400
400
400
399.884
399.755
399.615
399.465
399.309
399.148
398.983
398.816
398.648
398.48
398.312
398.144
397.974
397.805
397.635
397.467
397.299
397.134
396.972
396.813
396.656
396.5
396.344
396.189
396.033
395.879
395.725
395.573
395.422
395.272
395.277
395.292
395.315
395.344
395.377
400
400
400
400
400
399.884
399.755
399.615
399.466
399.31
399.148
398.983
398.816
398.647
398.479
398.31
398.142
397.974
397.805
397.637
397.469
397.303
397.139
396.977
396.818
396.661
396.505
396.348
396.192
396.037
395.882
395.728
395.576
395.424
395.273
395.278
395.293
395.316
395.345
395.378
400
400
400
400
400
399.884
399.756
399.616
399.467
399.311
399.149
398.984
398.817
398.648
398.479
398.311
398.143
397.976
397.808
397.641
397.474
397.309
397.146
396.985
396.826
396.668
396.511
396.354
396.198
396.042
395.886
395.732
395.58
395.428
395.277
395.282
395.297
395.32
395.348
395.381
400
400
400
400
400
399.884
399.756
399.616
399.467
399.311
399.15
398.984
398.817
398.648
398.479
398.31
398.142
397.975
397.809
397.642
397.477
397.313
397.15
396.989
396.829
396.671
396.513
396.356
396.199
396.042
395.887
395.733
395.58
395.428
395.276
395.282
395.297
395.32
395.348
395.381
400
400
400
400
400
399.885
399.756
399.617
399.468
399.312
399.151
398.986
398.819
398.65
398.481
398.312
398.144
397.978
397.812
397.647
397.483
397.319
397.157
396.996
396.836
396.677
396.518
396.36
396.203
396.046
395.891
395.736
395.583
395.43
395.279
395.284
395.299
395.322
395.35
395.383
400
400
400
400
400
399.885
399.756
399.617
399.468
399.313
399.152
398.987
398.819
398.65
398.481
398.312
398.144
397.977
397.812
397.648
397.484
397.321
397.159
396.997
396.836
396.676
396.517
396.358
396.2
396.043
395.887
395.733
395.579
395.426
395.275
395.28
395.295
395.317
395.345
395.378
400
400
400
400
400
399.885
399.757
399.618
399.47
399.315
399.154
398.99
398.822
398.653
398.484
398.315
398.146
397.98
397.815
397.651
397.487
397.324
397.161
396.998
396.837
396.676
396.515
396.356
396.197
396.039
395.882
395.726
395.572
395.418
395.266
395.27
395.285
395.307
395.335
395.367
400
400
400
400
400
399.885
399.757
399.618
399.469
399.314
399.153
398.988
398.819
398.65
398.479
398.309
398.139
397.971
397.805
397.639
397.473
397.308
397.142
396.977
396.813
396.649
396.486
396.323
396.162
396.001
395.841
395.683
395.525
395.369
395.213
395.216
395.23
395.252
395.279
395.31
400
400
400
400
400
399.885
399.757
399.617
399.468
399.311
399.148
398.98
398.809
398.636
398.461
398.286
398.112
397.938
397.766
397.594
397.422
397.249
397.076
396.903
396.731
396.559
396.387
396.216
396.046
395.877
395.708
395.54
395.373
395.207
395.042
395.043
395.055
395.076
395.102
395.132
400
400
400
400
400
399.882
399.749
399.603
399.446
399.28
399.106
398.925
398.74
398.551
398.36
398.167
397.973
397.78
397.587
397.393
397.198
397.002
396.805
396.608
396.411
396.214
396.016
395.819
395.623
395.426
395.231
395.036
394.842
394.648
394.456
394.455
394.468
394.493
394.524
394.559
400
400
400
400
400
399.862
399.704
399.526
399.332
399.124
398.905
398.676
398.44
398.199
397.953
397.705
397.455
397.204
396.953
396.7
396.445
396.188
395.93
395.671
395.412
395.152
394.891
394.631
394.372
394.113
393.854
393.596
393.339
393.082
392.828
392.9
392.993
393.096
393.203
393.301
400
400
400
400
400
399.892
399.773
399.643
399.502
399.35
399.188
399.017
398.837
398.649
398.454
398.253
398.046
397.834
397.617
397.398
397.176
396.95
396.722
396.49
396.255
396.017
395.777
395.536
395.293
395.05
394.807
394.565
394.323
394.082
393.844
393.84
393.849
393.87
393.9
393.926
400
400
400
400
400
399.906
399.805
399.698
399.583
399.462
399.335
399.202
399.064
398.922
398.775
398.624
398.47
398.313
398.153
397.992
397.829
397.664
397.497
397.328
397.157
396.984
396.81
396.635
396.459
396.283
396.107
395.932
395.757
395.583
395.41
395.372
395.341
395.317
395.298
395.281
400
400
400
400
400
399.908
399.81
399.707
399.598
399.484
399.365
399.242
399.115
398.985
398.852
398.717
398.579
398.44
398.299
398.158
398.016
397.873
397.728
397.582
397.434
397.286
397.136
396.986
396.837
396.687
396.538
396.389
396.241
396.095
395.95
395.921
395.896
395.877
395.861
395.849
400
400
400
400
400
399.908
399.81
399.707
399.598
399.485
399.368
399.247
399.123
398.996
398.866
398.735
398.602
398.467
398.332
398.196
398.06
397.923
397.786
397.646
397.506
397.365
397.223
397.082
396.94
396.799
396.658
396.518
396.38
396.242
396.107
396.082
396.062
396.045
396.033
396.025
400
400
400
400
400
399.908
399.81
399.707
399.599
399.486
399.369
399.248
399.125
398.999
398.87
398.74
398.608
398.476
398.342
398.208
398.073
397.939
397.803
397.666
397.527
397.389
397.25
397.111
396.972
396.833
396.695
396.559
396.423
396.289
396.156
396.134
396.115
396.1
396.088
396.082
400
400
400
400
400
399.907
399.809
399.706
399.597
399.484
399.367
399.247
399.123
398.997
398.869
398.739
398.608
398.475
398.342
398.208
398.073
397.938
397.803
397.666
397.528
397.39
397.252
397.113
396.975
396.837
396.7
396.564
396.429
396.296
396.165
396.142
396.124
396.109
396.098
396.093
400
400
400
400
400
399.907
399.809
399.706
399.597
399.484
399.367
399.247
399.123
398.998
398.87
398.741
398.61
398.477
398.344
398.21
398.075
397.939
397.804
397.667
397.53
397.392
397.254
397.116
396.977
396.84
396.703
396.567
396.433
396.3
396.168
396.146
396.128
396.113
396.103
396.098
400
400
400
400
400
399.907
399.809
399.706
399.597
399.484
399.367
399.246
399.123
398.998
398.87
398.741
398.61
398.478
398.344
398.208
398.073
397.937
397.801
397.664
397.527
397.389
397.251
397.112
396.974
396.837
396.7
396.564
396.429
396.296
396.165
396.143
396.124
396.11
396.1
396.095
400
400