/*--------------------------------*- C++ -*----------------------------------*\
| =========                 |                                                 |
| \\      /  F ield         | OpenFOAM: The Open Source CFD Toolbox           |
|  \\    /   O peration     | Version:  5.0                                   |
|   \\  /    A nd           | Web:      www.OpenFOAM.org                      |
|    \\/     M anipulation  |                                                 |
\*---------------------------------------------------------------------------*/
FoamFile
{
    version     2.0;
    format      ascii;
    class       volScalarField;
    location    "600/air";
    object      alphat;
}
// * * * * * * * * * * * * * * * * * * * * * * * * * * * * * * * * * * * * * //

dimensions      [1 -1 -1 0 0 0 0];

internalField   nonuniform List<scalar> 
243000
(
0.000220558
0.000218833
0.000210549
0.000200937
0.000190305
0.000179404
0.000168666
0.000158463
0.000149013
0.000140552
0.000133254
0.000127375
0.00012287
0.000119126
0.000115594
0.000112113
0.000108615
0.000105141
0.000101686
9.80477e-05
9.27031e-05
0.000386117
0.000411516
0.000102834
0.000112912
0.000124165
0.000134281
0.000144602
0.000156378
0.000172467
0.000996668
0.00103531
0.00102523
0.00100715
0.000982417
0.000953143
0.000921195
0.000888117
0.000854747
0.000822276
0.000791601
0.000763743
0.000737537
0.000712006
0.000688115
0.000665878
0.000644018
0.000621945
0.000598304
0.000571106
0.000536357
0.000487801
0.000488374
0.000582884
0.000632113
0.000673452
0.000711573
0.000745787
0.000781278
0.000826295
0.00109319
0.00113533
0.00112569
0.00110679
0.0010801
0.00104837
0.00101357
0.000977368
0.000940625
0.000904753
0.000870813
0.00083975
0.000809824
0.000780103
0.000752267
0.000726666
0.000701975
0.000677499
0.000651137
0.000620206
0.000583234
0.000529818
0.000514898
0.000626077
0.000693066
0.000745486
0.000794513
0.000835951
0.000875464
0.00092343
0.00115435
0.00119589
0.00118868
0.00117116
0.00114525
0.00111387
0.00107895
0.0010421
0.0010043
0.000967178
0.000931975
0.000899763
0.000868411
0.000836691
0.000806415
0.000778187
0.000750906
0.000723967
0.000694799
0.000660333
0.00062091
0.000565674
0.000531905
0.000648341
0.000733799
0.00079708
0.000855496
0.000902508
0.00094417
0.000991234
0.00119574
0.00123388
0.0012292
0.00121383
0.00118989
0.00116021
0.00112652
0.00109037
0.00105278
0.00101557
0.000980251
0.000948019
0.000916452
0.000883967
0.000852231
0.000822059
0.000792671
0.000763597
0.000731972
0.000694752
0.00065332
0.000597435
0.000552408
0.000653766
0.000759965
0.000833671
0.000900516
0.000952896
0.000996061
0.001041
0.00122329
0.00125731
0.00125492
0.00124198
0.00122058
0.00119328
0.00116153
0.0011268
0.00109016
0.00105355
0.00101879
0.000987197
0.000956113
0.000923598
0.000891029
0.000859471
0.000828496
0.000797687
0.000764029
0.000724896
0.000682062
0.000626364
0.000575192
0.000651032
0.000777057
0.000859129
0.00093233
0.00099073
0.00103542
0.00107802
0.00124056
0.00127077
0.00127032
0.00125989
0.00124128
0.00121665
0.00118721
0.00115434
0.00111906
0.0010835
0.00104972
0.00101916
0.000988956
0.000956869
0.000923906
0.000891421
0.000859303
0.00082714
0.000791808
0.000751549
0.000707914
0.000652967
0.000598556
0.00064649
0.000787088
0.000876727
0.000954193
0.00101761
0.00106436
0.00110508
0.00124983
0.00127685
0.00127822
0.00127027
0.00125452
0.00123269
0.00120575
0.00117493
0.00114129
0.00110707
0.00107453
0.00104524
0.00101614
0.000984746
0.000951733
0.000918708
0.000885818
0.000852651
0.000815925
0.000775227
0.000731336
0.000677496
0.00062162
0.00064403
0.000792149
0.000887949
0.000967915
0.00103639
0.00108461
0.00112399
0.0012522
0.0012764
0.0012804
0.00127493
0.00126193
0.0012429
0.00121856
0.00118993
0.00115811
0.00112543
0.00109431
0.0010664
0.00103854
0.00100797
0.000975191
0.000941962
0.000908613
0.000874772
0.000836906
0.000796332
0.000752648
0.000700116
0.000643706
0.000645232
0.000793732
0.000894345
0.000975106
0.00104776
0.00109786
0.00113636
0.00124925
0.00127191
0.00127836
0.00127578
0.00126523
0.00124873
0.00122671
0.00120025
0.00117039
0.00113942
0.00110987
0.0010834
0.0010568
0.00102714
0.000994835
0.000961699
0.000928181
0.000893921
0.000855213
0.000815229
0.000772108
0.000720986
0.000664826
0.000651172
0.000791508
0.000897421
0.000979065
0.00105304
0.00110497
0.00114309
0.00124232
0.00126432
0.00127293
0.00127311
0.0012655
0.00125125
0.0012314
0.00120687
0.00117881
0.00114968
0.00112178
0.00109681
0.00107143
0.00104276
0.00101112
0.000978351
0.000944938
0.000910478
0.000871203
0.00083228
0.000789955
0.000740245
0.000684932
0.000661235
0.000784289
0.000898176
0.000980654
0.0010536
0.00110723
0.00114529
0.00123194
0.00125402
0.00126484
0.00126764
0.00126283
0.00125122
0.00123331
0.00121058
0.00118418
0.00115672
0.00113053
0.00110703
0.00108285
0.00105523
0.00102445
0.000992292
0.000959235
0.000924775
0.000886047
0.000847874
0.000806367
0.000757968
0.000703753
0.000672919
0.000775728
0.000896693
0.000979706
0.00104956
0.00110539
0.00114372
0.00121851
0.00124133
0.00125454
0.00125983
0.00125771
0.0012486
0.00123293
0.00121189
0.00118705
0.00116111
0.00113654
0.00111446
0.00109142
0.00106494
0.00103518
0.00100385
0.00097138
0.000937091
0.000899427
0.000862082
0.000821437
0.000774262
0.000721207
0.000684743
0.000766541
0.000892786
0.000975837
0.00104152
0.00109946
0.00113857
0.00120242
0.00122653
0.00124233
0.00125006
0.00125051
0.0012437
0.00123019
0.00121109
0.00118786
0.00116334
0.00114013
0.00111939
0.00109749
0.00107219
0.00104361
0.00101333
0.000981649
0.000947692
0.000911367
0.000874986
0.000835265
0.000789244
0.000737252
0.000696237
0.00075688
0.000886869
0.000970075
0.00103366
0.00108981
0.00113009
0.00118406
0.00120999
0.00122833
0.0012386
0.00124144
0.00123687
0.00122528
0.00120814
0.00118671
0.00116376
0.0011418
0.00112212
0.00110134
0.00107732
0.00105005
0.00102099
0.000990277
0.000956819
0.000922024
0.000886738
0.000847994
0.000803062
0.00075198
0.000707488
0.000747005
0.000879299
0.000962788
0.00102468
0.001077
0.00111871
0.00116387
0.00119192
0.00121272
0.00122564
0.00123071
0.0012283
0.00121856
0.00120316
0.00118364
0.0011624
0.00114188
0.00112315
0.0011033
0.00108062
0.00105478
0.00102709
0.000997484
0.000964728
0.000931627
0.000897542
0.000859803
0.000815904
0.000765676
0.000718259
0.000737492
0.000870351
0.000954214
0.00101453
0.00106313
0.00110493
0.00114341
0.00117259
0.00119571
0.00121126
0.00121849
0.00121812
0.00121018
0.00119648
0.00117873
0.0011593
0.0011403
0.00112271
0.00110384
0.00108237
0.00105806
0.00103187
0.00100347
0.00097177
0.000940473
0.000907633
0.0008709
0.000827981
0.00077839
0.000728639
0.000729237
0.000860137
0.000944624
0.00100364
0.00104974
0.00108916
0.00112401
0.0011532
0.00117765
0.00119553
0.0012049
0.00120645
0.00120028
0.0011883
0.00117232
0.00115465
0.00113716
0.00112073
0.00110306
0.00108292
0.00106015
0.00103553
0.00100843
0.000978522
0.000948814
0.000917204
0.000881478
0.000839463
0.000790401
0.000738893
0.000725504
0.000847416
0.000934237
0.000992193
0.00103624
0.00107224
0.00110532
0.00113484
0.0011596
0.00117872
0.00119015
0.00119346
0.00118903
0.00117876
0.00116461
0.00114871
0.00113271
0.00111747
0.00110099
0.00108239
0.00106122
0.00103822
0.0010125
0.000984757
0.000956706
0.000926392
0.000891719
0.000850579
0.000801966
0.000749243
0.00072445
0.000833517
0.000923266
0.000980393
0.00102287
0.00105694
0.00108713
0.00111727
0.00114236
0.00116161
0.00117444
0.0011793
0.00117653
0.00116798
0.00115569
0.00114153
0.00112706
0.00111307
0.00109788
0.00108083
0.00106139
0.00104001
0.00101582
0.0009905
0.000964243
0.000935333
0.000901799
0.000861562
0.00081342
0.000759704
0.000726288
0.00081937
0.000911909
0.000968375
0.00100964
0.00104261
0.00106937
0.00110032
0.00112584
0.00114526
0.00115841
0.00116415
0.0011629
0.00115601
0.00114557
0.00113319
0.00112024
0.00110757
0.00109376
0.00107831
0.0010606
0.00104096
0.00101892
0.000996011
0.000971591
0.000944183
0.000911903
0.000872707
0.0008251
0.000770651
0.000730341
0.00080608
0.000900464
0.000956306
0.000996597
0.00102895
0.00105203
0.0010839
0.00110991
0.00112954
0.00114305
0.00114917
0.00114871
0.00114301
0.00113437
0.00112376
0.00111237
0.00110107
0.00108869
0.00107488
0.00105895
0.00104147
0.00102221
0.00100156
0.000978975
0.000953142
0.000922264
0.000884234
0.00083728
0.000782376
0.000736301
0.00079452
0.000889324
0.000944448
0.000983884
0.00101587
0.00103524
0.00106801
0.00109447
0.00111434
0.00112822
0.00113497
0.00113542
0.001131
0.0011238
0.00111478
0.00110489
0.00109484
0.00108394
0.00107186
0.00105812
0.00104291
0.00102605
0.00100752
0.000986756
0.000962572
0.00093325
0.000896568
0.000850452
0.000795223
0.000744671
0.000785886
0.000879184
0.000933269
0.000971818
0.00100351
0.00101918
0.00105269
0.00107944
0.00109961
0.00111397
0.00112153
0.00112294
0.00111993
0.0011143
0.00110697
0.00109869
0.00109007
0.00108075
0.00107041
0.00105874
0.00104568
0.00103105
0.00101458
0.000995684
0.000973235
0.000945598
0.000910473
0.000865424
0.000809946
0.000755859
0.000781299
0.00087085
0.000923495
0.000961031
0.00099226
0.00100417
0.00103809
0.00106504
0.00108556
0.00110037
0.00110887
0.00111131
0.00110986
0.00110597
0.00110045
0.00109395
0.00108701
0.0010795
0.00107115
0.0010617
0.00105094
0.00103863
0.00102434
0.00100741
0.000986794
0.000960917
0.000927451
0.000883595
0.000827948
0.000770412
0.000782523
0.000865037
0.000915624
0.000951922
0.000982441
0.000991175
0.00102498
0.00105182
0.00107252
0.00108776
0.00109732
0.00110096
0.0011013
0.00109942
0.00109606
0.00109182
0.00108718
0.00108209
0.00107637
0.00106975
0.00106185
0.00105225
0.00104037
0.00102555
0.00100679
0.000982591
0.000950607
0.000907865
0.000851854
0.000790311
0.000790629
0.000864129
0.000911196
0.000945569
0.000974889
0.000982248
0.00101536
0.00104165
0.00106232
0.00107796
0.00108893
0.00109433
0.00109714
0.00109812
0.00109796
0.00109721
0.00109626
0.00109509
0.00109342
0.00109084
0.00108668
0.00108022
0.00107089
0.001058
0.00104067
0.00101759
0.000986612
0.000944579
0.000888126
0.000822266
0.000811315
0.000871892
0.00091428
0.000945766
0.00097251
0.000985926
0.0010175
0.00104328
0.0010646
0.00108174
0.00109549
0.00110463
0.00111203
0.00111823
0.00112377
0.00112932
0.00113511
0.00114064
0.00114511
0.0011477
0.00114749
0.00114371
0.0011359
0.00112364
0.00110627
0.00108289
0.00105176
0.00101006
0.000954568
0.000887525
0.000864681
0.000905578
0.000938817
0.000963933
0.000985247
0.00106463
0.00109356
0.00111912
0.001142
0.00116211
0.0011801
0.00119618
0.00121159
0.00122551
0.00123887
0.00125352
0.00126875
0.00128202
0.00129217
0.00129806
0.00129923
0.00129528
0.00128644
0.00127289
0.00125373
0.00122924
0.00119864
0.00116033
0.00111311
0.00105777
0.00102765
0.00104196
0.00105774
0.00106885
0.00107813
0.00148222
0.00149769
0.00151231
0.00152584
0.00153619
0.00154221
0.00155161
0.00156275
0.00157006
0.00157738
0.00159112
0.00160619
0.00161557
0.00162013
0.00161946
0.00161555
0.00160772
0.00159808
0.00158718
0.00157204
0.00155615
0.00154058
0.00152476
0.00150786
0.00149221
0.00148777
0.00149242
0.0014968
0.00149775
0.0014973
0.000268483
0.00027253
0.000265097
0.000254273
0.000241415
0.00022763
0.000213652
0.000200023
0.000187008
0.000174922
0.000163986
0.000154572
0.000146353
0.000138431
0.000130365
0.000122174
0.000113583
0.000104994
9.64561e-05
8.71789e-05
8.39034e-05
0.000374016
9.25689e-05
0.000109479
0.00012153
0.000137026
0.000145628
0.000154123
0.000167788
0.000191374
0.00120014
0.00130527
0.00121629
0.0010951
0.000974032
0.000865768
0.000772075
0.000691313
0.000620842
0.000559972
0.000506556
0.000455991
0.000402565
0.000361045
0.000342987
0.000343315
0.000350417
0.000365335
0.000385075
0.000389746
0.000392154
0.000426687
0.000472749
0.000673339
0.000831876
0.000967253
0.000965671
0.000863268
0.000797603
0.000811054
0.0020121
0.00225714
0.00217449
0.00200647
0.00181445
0.00162928
0.0014616
0.0013128
0.00118063
0.00106571
0.000964904
0.000868163
0.000766064
0.000690388
0.000660104
0.000661641
0.000672995
0.000694702
0.000721031
0.000726127
0.000692186
0.000629393
0.000716003
0.00102299
0.00133569
0.00160948
0.00165794
0.00154948
0.00145308
0.0014748
0.0026673
0.00298189
0.00292945
0.00275767
0.00253718
0.00230918
0.00209228
0.00189268
0.00171224
0.0015535
0.00140873
0.00126968
0.00112981
0.00102911
0.000988516
0.000986646
0.00099607
0.00101782
0.00104291
0.00104306
0.000968011
0.000845618
0.000922105
0.00125616
0.00168106
0.00208846
0.00221562
0.00214396
0.00205571
0.00210222
0.00320011
0.00353417
0.00351179
0.00335429
0.00312983
0.00288271
0.00263662
0.00240263
0.00218621
0.00199062
0.00181273
0.00164316
0.00147581
0.00135814
0.00130854
0.00130009
0.00130387
0.00132246
0.00134653
0.00134188
0.00123674
0.00107468
0.00112878
0.00145435
0.00193903
0.00244413
0.00268014
0.00266068
0.00260145
0.00267124
0.00363451
0.00396112
0.0039627
0.00382577
0.00361013
0.00335883
0.00309792
0.00284232
0.00259942
0.00237659
0.00217616
0.00198537
0.00180126
0.001673
0.00161485
0.00159765
0.00159327
0.00160711
0.00163579
0.00162347
0.00149766
0.00131289
0.00134218
0.00163802
0.00215122
0.00272548
0.00305287
0.00310952
0.00308972
0.00317552
0.00398931
0.00429481
0.00431367
0.00419803
0.00399729
0.00375091
0.00348523
0.00321792
0.0029584
0.00271685
0.00250122
0.00229929
0.00210696
0.00197283
0.00190545
0.00187814
0.001864
0.00187256
0.00190829
0.00188658
0.00174665
0.0015522
0.00155611
0.00181169
0.00232779
0.00295254
0.00334211
0.00348576
0.00351752
0.00361173
0.00427369
0.00455732
0.00458695
0.00449018
0.0043073
0.00407107
0.00380778
0.00353634
0.00326908
0.00301674
0.00278999
0.0025854
0.00239413
0.00225658
0.00217945
0.00214115
0.0021166
0.00212068
0.00216285
0.00212962
0.00197894
0.00178231
0.00176219
0.00197355
0.00247414
0.00312622
0.00357852
0.00378597
0.00387335
0.00397756
0.00449612
0.00474218
0.00479708
0.00472039
0.00455304
0.00432866
0.00407222
0.00380334
0.00353488
0.00328168
0.00305029
0.00284464
0.00266085
0.00252285
0.00243602
0.00238632
0.00235213
0.00235442
0.00239895
0.00235091
0.00219077
0.00199433
0.00195216
0.00212039
0.0025949
0.00325593
0.00376552
0.00400844
0.00415041
0.00426982
0.00466685
0.00489485
0.0049591
0.00491159
0.00475791
0.00454252
0.00428975
0.00402276
0.0037598
0.0035119
0.00328601
0.00308392
0.00290436
0.00276934
0.00267441
0.00261405
0.00257138
0.00257638
0.00261568
0.00254925
0.00237952
0.00218209
0.00211975
0.00225054
0.00269283
0.00335582
0.00391559
0.00420113
0.00436895
0.00451227
0.00481112
0.00501151
0.00507937
0.00505119
0.0049299
0.00472467
0.00447531
0.00421067
0.00394923
0.0037113
0.00349596
0.0033052
0.00313161
0.00299388
0.00289461
0.00282511
0.00277559
0.00278494
0.0028114
0.00272423
0.00254383
0.00234226
0.00226093
0.00236111
0.00276871
0.00343321
0.00403099
0.00436185
0.00455629
0.00471944
0.00491005
0.00509044
0.00516287
0.0051513
0.00505592
0.00487907
0.00463627
0.0043739
0.00411589
0.00388389
0.0036829
0.00350606
0.00334143
0.00320379
0.00309714
0.00302075
0.00296692
0.0029803
0.00298521
0.00287645
0.0026833
0.00247393
0.00237432
0.00244894
0.00282497
0.00349242
0.00411333
0.00449861
0.00472177
0.00489907
0.00496508
0.00513333
0.00521373
0.00521864
0.00514794
0.00499471
0.00477222
0.00451863
0.00426382
0.00403816
0.00384954
0.00368791
0.00353264
0.00339624
0.00328472
0.00320292
0.00314865
0.0031633
0.00314072
0.00300746
0.00279869
0.00257854
0.00246034
0.00251225
0.00286305
0.00350767
0.00413984
0.0045864
0.00485015
0.00504821
0.00498184
0.00514381
0.0052359
0.00525843
0.00520974
0.00508201
0.00487702
0.00464052
0.00439762
0.00417784
0.00399842
0.00385238
0.00370642
0.00357231
0.00345803
0.00337359
0.0033249
0.00333454
0.00328033
0.00311909
0.00289234
0.00265944
0.0025188
0.00255079
0.00287547
0.00348461
0.00411886
0.00461043
0.00492032
0.00514033
0.00496456
0.00512789
0.00523333
0.00527413
0.00524562
0.00514421
0.00495488
0.00473729
0.00451271
0.00430548
0.00413603
0.00400167
0.00386464
0.00373392
0.00361928
0.00353515
0.0034944
0.00349348
0.00340568
0.00321463
0.00296755
0.00271888
0.00255486
0.00256556
0.00285461
0.00342989
0.00406035
0.00458125
0.00494178
0.00518937
0.00491859
0.0050898
0.00520999
0.00526921
0.00526018
0.00518423
0.00501473
0.00481197
0.0046089
0.00442084
0.00426424
0.00413923
0.00400994
0.00388362
0.00377105
0.00369071
0.00365634
0.00363881
0.00351773
0.00329742
0.0030278
0.00276094
0.00257468
0.00256071
0.00281141
0.00335189
0.0039745
0.00451046
0.00492267
0.00520527
0.00484673
0.00503507
0.00517045
0.00524768
0.00525819
0.00520505
0.00505894
0.0048721
0.00469031
0.00452344
0.00438511
0.00426803
0.00414547
0.00402468
0.00391608
0.00384425
0.00380909
0.00376751
0.00361655
0.00336961
0.0030765
0.00278985
0.00258168
0.00253758
0.00275307
0.0032586
0.00387079
0.00441212
0.00485672
0.00519039
0.00473605
0.00496183
0.00512134
0.00521483
0.00524412
0.00521152
0.00509108
0.00492325
0.00476267
0.00462304
0.00450035
0.00438868
0.00427449
0.00415696
0.0040563
0.00399173
0.00394763
0.00387628
0.00370066
0.00343143
0.00311608
0.00280887
0.00257716
0.00250259
0.00268608
0.00315737
0.00375675
0.0042959
0.00476033
0.00515036
0.00460041
0.00485957
0.00505899
0.00517903
0.00522442
0.00520991
0.005116
0.00496972
0.00483721
0.00472097
0.00460794
0.00450459
0.00439366
0.00428502
0.00419302
0.00412566
0.0040632
0.00396022
0.00376483
0.00348017
0.00314718
0.00282014
0.00256165
0.00246475
0.00261206
0.00305584
0.00363822
0.00416921
0.00464383
0.0050694
0.00444847
0.00474124
0.00497823
0.00514018
0.00520937
0.00520906
0.00514011
0.00502314
0.00491783
0.00481223
0.00471126
0.00461476
0.00450972
0.00440616
0.00431317
0.00423045
0.00414192
0.00400847
0.00379933
0.00350872
0.00316667
0.0028242
0.00254505
0.00242785
0.00254576
0.00296174
0.0035201
0.00403922
0.00451582
0.00496036
0.00429624
0.0046191
0.00488737
0.00508547
0.00519257
0.00521904
0.00517234
0.00508328
0.00499458
0.00490382
0.00481143
0.00471679
0.00461169
0.00450142
0.00439346
0.00428299
0.00416136
0.00400429
0.00378941
0.00350458
0.00316701
0.00281797
0.00252829
0.00239203
0.00251636
0.00288095
0.00340937
0.00391399
0.004384
0.0048328
0.00414821
0.00449651
0.00479021
0.0050213
0.00516099
0.00521262
0.00520061
0.00513755
0.0050638
0.00498025
0.00488803
0.00478503
0.00466584
0.0045346
0.00439725
0.00425076
0.00409904
0.00392781
0.00371709
0.00345096
0.00313726
0.00279652
0.00250129
0.00235828
0.00249025
0.00281868
0.0033107
0.00380074
0.00425975
0.00470023
0.00401631
0.00438273
0.00469181
0.00492904
0.0050799
0.00517859
0.00519065
0.00514597
0.0050786
0.00499209
0.00488827
0.00476542
0.0046193
0.00445662
0.00428008
0.00410367
0.00393524
0.00376244
0.00356789
0.00333526
0.00306397
0.00275345
0.00246117
0.00231974
0.00247093
0.00279751
0.00324599
0.00370647
0.00414548
0.00456895
0.00390198
0.00425946
0.00455305
0.00479461
0.00498433
0.00509837
0.00511392
0.00507108
0.00499577
0.00489217
0.00476332
0.00460957
0.00443027
0.00423555
0.00402866
0.00383757
0.0036704
0.00351194
0.00334639
0.00316094
0.00294556
0.00268767
0.00241251
0.00226919
0.00245983
0.00277373
0.00321756
0.0036585
0.00407387
0.00446544
0.00376035
0.00409907
0.00439337
0.00464426
0.00482597
0.00492388
0.0049203
0.0048608
0.00476347
0.00463261
0.00447302
0.00429244
0.00409244
0.00388501
0.00367693
0.00349807
0.00335469
0.003227
0.00310012
0.00296652
0.00280991
0.00261095
0.00237444
0.00221401
0.00240744
0.00273
0.00314026
0.00356192
0.00395416
0.00431492
0.00362139
0.0039256
0.00418076
0.00439171
0.00453308
0.00458548
0.00455109
0.00446708
0.004349
0.00420348
0.00403689
0.00385755
0.00367541
0.00349873
0.00333398
0.0032009
0.00309972
0.00301052
0.00292234
0.00283014
0.00271893
0.00256894
0.00237251
0.00219664
0.00230539
0.00263065
0.00299485
0.00338603
0.00375482
0.00408121
0.00336852
0.00361964
0.00381041
0.00395716
0.00404489
0.00405969
0.00401156
0.0039324
0.00383187
0.00371598
0.00359091
0.00346434
0.00334505
0.00323725
0.00314293
0.00306848
0.00300989
0.00295025
0.00288795
0.00281912
0.00273382
0.00261505
0.00245176
0.00226976
0.00224879
0.00245701
0.00275936
0.00308852
0.00341474
0.00370462
0.00301804
0.00319621
0.00332877
0.0034349
0.00350422
0.00352902
0.00351526
0.00348695
0.00344517
0.00339335
0.00333692
0.00328195
0.00323171
0.00318244
0.00313168
0.00308803
0.0030458
0.00300305
0.00295677
0.00290358
0.00283745
0.00274766
0.00262218
0.00246944
0.00238361
0.00244682
0.00262667
0.00283428
0.00305183
0.0032598
0.00291686
0.00302528
0.00311745
0.00319938
0.0032637
0.00330371
0.00332219
0.00333206
0.0033292
0.00331603
0.00329585
0.00326885
0.00323913
0.00320462
0.00317231
0.00313614
0.00310189
0.00306936
0.00303666
0.00300139
0.00296048
0.00290721
0.00283002
0.00273977
0.00268303
0.00271481
0.00280388
0.00291022
0.00300601
0.00309328
0.00311535
0.00316511
0.00320625
0.00324265
0.00327094
0.00328797
0.00329564
0.0032973
0.00328902
0.00327584
0.00326423
0.00324856
0.00322575
0.00319649
0.00316639
0.00313952
0.0031188
0.00310501
0.00309343
0.00308189
0.0030699
0.00305493
0.00303162
0.00300253
0.00299587
0.00302284
0.00306523
0.00310776
0.00314146
0.00316973
0.000302622
0.000309642
0.000300896
0.000289053
0.000274917
0.000259553
0.000243755
0.0002281
0.000212828
0.00019819
0.000184198
0.000171105
0.000158314
0.000145633
0.000134066
0.000124617
0.00011663
0.000114151
0.000116319
0.000118039
0.000102432
9.60844e-05
0.000108516
0.000127225
0.000142242
0.000162772
0.000177696
0.000186512
0.000197691
0.000213577
0.0014913
0.00166621
0.00159772
0.00145095
0.00129141
0.00114544
0.00101791
0.000907277
0.000808727
0.000720028
0.000637476
0.00055329
0.000463947
0.000421899
0.000447821
0.000513064
0.000574459
0.000630248
0.000672162
0.00068607
0.000623359
0.00058638
0.000717592
0.000928394
0.00105988
0.00111973
0.00109901
0.00103789
0.000954816
0.000931484
0.00253327
0.00290168
0.00286866
0.00268612
0.0024463
0.00220189
0.00197375
0.00176693
0.00157723
0.00140327
0.00124037
0.0010729
0.000898286
0.000826195
0.000881189
0.000991941
0.00108589
0.00117114
0.00124995
0.00127021
0.00120567
0.00116833
0.0013296
0.00163517
0.00186344
0.00199491
0.00199931
0.00191632
0.00178186
0.00175005
0.00338264
0.00384589
0.00385565
0.00368411
0.00341867
0.00312285
0.00282959
0.00255175
0.00228957
0.00204569
0.00181716
0.00157481
0.00133533
0.00124985
0.00132628
0.00145988
0.00156805
0.00167482
0.00178268
0.00181067
0.00176374
0.00172868
0.00188894
0.0022347
0.0025472
0.00274651
0.0027819
0.00270702
0.00256215
0.002544
0.00409533
0.00458082
0.00463014
0.0044821
0.00421497
0.00389479
0.00356101
0.00323305
0.00291658
0.00261962
0.00233442
0.00203995
0.00176248
0.00167501
0.00176457
0.00190566
0.00201794
0.00214419
0.00227515
0.0023164
0.00229115
0.00226443
0.00241583
0.0027792
0.00314013
0.00339643
0.00347314
0.00341985
0.0032918
0.00328719
0.0047106
0.00517986
0.00525402
0.00512867
0.00486944
0.00453971
0.00418152
0.00381915
0.00346343
0.00312503
0.0027987
0.00247333
0.00217966
0.00209743
0.00219155
0.00232882
0.00243893
0.00258455
0.00273221
0.00278639
0.00278169
0.00277021
0.00291261
0.00327159
0.00364875
0.00395186
0.00407736
0.00406417
0.00396396
0.00396719
0.00524201
0.0056777
0.00576599
0.00565848
0.00541012
0.0050792
0.00470735
0.0043228
0.00394043
0.00357566
0.00322049
0.00288065
0.00258987
0.00251498
0.00260521
0.00273029
0.00283464
0.00300042
0.00315186
0.00321737
0.00323058
0.00323744
0.00337283
0.00370298
0.00407297
0.00440939
0.00458986
0.00462924
0.00456603
0.00457408
0.00569411
0.00609642
0.00619111
0.00609454
0.00585741
0.00553035
0.00515213
0.00475534
0.00435789
0.00397782
0.00361037
0.00326562
0.00299377
0.00292498
0.00300392
0.00311112
0.00320863
0.00338699
0.00353289
0.00360541
0.00363306
0.00365792
0.00378744
0.00406703
0.00441146
0.00476168
0.00500981
0.00510838
0.00509607
0.00512802
0.00606394
0.00643222
0.00654851
0.00645869
0.00622808
0.00590621
0.00552588
0.00512566
0.00472381
0.0043393
0.00397503
0.00363584
0.00338791
0.00332464
0.0033861
0.00347235
0.00356459
0.003741
0.00387417
0.00394764
0.00398517
0.00402434
0.00414195
0.00435595
0.00470619
0.00509112
0.00536975
0.00553121
0.00557411
0.00562096
0.00638598
0.00673068
0.00684702
0.0067817
0.0065537
0.00623297
0.00584755
0.00544107
0.00504423
0.00466691
0.00431547
0.00399743
0.00376807
0.00371054
0.00375021
0.00381531
0.00390558
0.00406081
0.00417471
0.00424249
0.00428407
0.00433257
0.00443238
0.00460944
0.00497615
0.00538291
0.00569382
0.00588778
0.00598318
0.00605312
0.00667188
0.00698253
0.00708977
0.00703985
0.00684553
0.00652482
0.00613587
0.00572533
0.00532923
0.00496771
0.0046355
0.00434716
0.00413755
0.00407599
0.0040966
0.00414177
0.00422748
0.00434838
0.00443464
0.00448814
0.0045263
0.00457841
0.00466573
0.00484378
0.00521846
0.00563996
0.00597812
0.00619751
0.00632267
0.00642435
0.00689492
0.00718403
0.0072853
0.00724846
0.00707788
0.00678685
0.00639971
0.00598542
0.00559412
0.00524866
0.00493963
0.00468359
0.00449622
0.00442552
0.00442412
0.00445374
0.00452739
0.00460531
0.00465457
0.00468335
0.00471118
0.00475963
0.00485218
0.00504578
0.00542947
0.00586634
0.00622923
0.00647413
0.00662753
0.00675976
0.00706681
0.00733743
0.00743969
0.00741533
0.00727095
0.00700299
0.00663774
0.00622841
0.00584349
0.00551381
0.00523115
0.00500656
0.00483786
0.00475998
0.00473881
0.00475352
0.00480247
0.00483194
0.00483593
0.00482924
0.0048387
0.0048786
0.00498196
0.0052093
0.0055823
0.00602444
0.00641512
0.00670068
0.00689473
0.007065
0.00719505
0.00744805
0.00755759
0.0075486
0.00742719
0.00718513
0.00684065
0.00645196
0.0060809
0.00577101
0.00551305
0.00531605
0.0051623
0.00507725
0.00503759
0.00504043
0.00504888
0.00502772
0.00498001
0.00492803
0.00490835
0.0049403
0.00505455
0.00528959
0.0056515
0.00610261
0.00652289
0.00685295
0.00708279
0.00729707
0.0072848
0.00752205
0.00764386
0.00765254
0.00755242
0.00734058
0.00701376
0.00665165
0.00630935
0.00602224
0.00578719
0.00561282
0.00547019
0.00537863
0.00532345
0.00530618
0.0052658
0.00519024
0.0050867
0.00498174
0.00492304
0.00495134
0.00503907
0.00528747
0.00565282
0.00611692
0.00656823
0.00694568
0.00721649
0.00748041
0.00733792
0.00756875
0.00770385
0.0077318
0.00765275
0.00747382
0.00717065
0.00683581
0.00653198
0.00626799
0.00605497
0.00589792
0.0057621
0.0056602
0.00559262
0.00554153
0.00544797
0.00531465
0.00515407
0.00499166
0.00488765
0.0048964
0.00497597
0.00521878
0.00560027
0.00608101
0.00656331
0.00698821
0.00731341
0.00762217
0.00735373
0.00759308
0.00774289
0.00779185
0.00773616
0.00758812
0.00731592
0.00701305
0.00675028
0.00650854
0.0063168
0.00617056
0.00603691
0.00592424
0.0058353
0.00573352
0.00558546
0.00539373
0.00517789
0.00495916
0.00480478
0.00478556
0.00488422
0.00510918
0.00550631
0.00600581
0.00651759
0.00699009
0.00737085
0.00772726
0.00733402
0.0075897
0.00776677
0.00783912
0.00780913
0.00768911
0.00745529
0.00719771
0.0069611
0.00674747
0.0065699
0.00642554
0.00628691
0.00615832
0.00603177
0.00586996
0.00566414
0.00541714
0.00515141
0.00488381
0.004679
0.00461902
0.00474289
0.00496831
0.00537983
0.00589881
0.00643973
0.00695534
0.00739184
0.00779836
0.00727992
0.00756039
0.00777232
0.00788009
0.00787785
0.00778271
0.00759223
0.00737849
0.00716416
0.0069758
0.00680434
0.00665373
0.00649895
0.00633934
0.00615679
0.00593199
0.00566802
0.00537234
0.00506603
0.00476258
0.00451319
0.00440432
0.00454205
0.00480427
0.00522456
0.00576629
0.00633739
0.00688771
0.0073769
0.00782409
0.00719096
0.00751323
0.0077652
0.00790659
0.00793835
0.00787342
0.0077275
0.00754551
0.00735514
0.00717497
0.00700104
0.00683108
0.00664515
0.00643258
0.00618622
0.00589639
0.00557992
0.00524739
0.00491347
0.00459157
0.00431126
0.00416419
0.00427393
0.00460732
0.00503059
0.00561108
0.00621365
0.00678779
0.00732023
0.00779992
0.00707686
0.00743862
0.00772236
0.00789794
0.00796547
0.00795535
0.00784472
0.00767364
0.0074949
0.00731563
0.00712597
0.00691862
0.00668084
0.00640683
0.00609023
0.0057429
0.00538748
0.00503462
0.00469079
0.00436883
0.00407908
0.00389396
0.00397701
0.00437621
0.00483994
0.00542372
0.00606766
0.00665979
0.0072192
0.00772601
0.00693241
0.00733754
0.00765753
0.00785972
0.00794178
0.00797039
0.00787944
0.00772034
0.00753923
0.00734453
0.00712699
0.00687016
0.00657245
0.00623481
0.00585252
0.00546497
0.00509394
0.00474131
0.00440882
0.00410527
0.00382758
0.00362129
0.00365966
0.00410423
0.00468698
0.00524828
0.0058814
0.00650999
0.00708437
0.00760942
0.00677518
0.00719512
0.00749549
0.00769844
0.00784088
0.00788996
0.00779724
0.00763172
0.00743239
0.00720824
0.00695236
0.00664951
0.00629675
0.0059094
0.00548515
0.00508649
0.00472953
0.00440049
0.00410014
0.00383114
0.00359038
0.00338571
0.00335313
0.00378122
0.00447087
0.00507899
0.0057343
0.00636378
0.006943
0.00745652
0.00651364
0.00690206
0.00721803
0.00746542
0.00761325
0.00764548
0.0075316
0.00734519
0.00711921
0.00686362
0.00657485
0.00624169
0.00586519
0.00546328
0.00504284
0.00467122
0.0043575
0.00407149
0.00381877
0.00360825
0.00341256
0.00322029
0.00312034
0.00343978
0.00416336
0.0047925
0.00545757
0.00609504
0.00668381
0.00718266
0.00613038
0.00652555
0.00683209
0.0070515
0.0071759
0.0071646
0.00702375
0.00681926
0.00657884
0.00631307
0.00602096
0.00569569
0.00534276
0.00498054
0.00462024
0.00431012
0.00405477
0.00383067
0.00364517
0.00348522
0.00332793
0.0031546
0.00300835
0.00315596
0.00374694
0.00439228
0.0050178
0.00564652
0.00623448
0.00671731
0.00559334
0.00595444
0.00621034
0.00638741
0.00646456
0.00642488
0.00628163
0.00609197
0.00587726
0.00564626
0.00539908
0.00513222
0.0048531
0.00457583
0.00430831
0.00407123
0.00388776
0.00372428
0.00358747
0.00346376
0.00333687
0.00318804
0.00302921
0.00302313
0.00335238
0.00389756
0.00444454
0.0050178
0.00557046
0.00603979
0.00485166
0.00516626
0.00536879
0.00550804
0.00557308
0.00555286
0.00545834
0.00533341
0.00519152
0.00503822
0.0048737
0.00469641
0.00451136
0.00432331
0.00413462
0.00397586
0.00383298
0.00370743
0.00360025
0.0035038
0.00340558
0.00328984
0.00315298
0.00307848
0.00318711
0.00350404
0.00389708
0.00433144
0.00477268
0.00518099
0.00419678
0.00442823
0.00459528
0.0047264
0.00481156
0.004842
0.00482179
0.00477825
0.00471712
0.00464235
0.00455465
0.00445115
0.00432882
0.00419424
0.00406198