/*--------------------------------*- C++ -*----------------------------------*\
| =========                 |                                                 |
| \\      /  F ield         | OpenFOAM: The Open Source CFD Toolbox           |
|  \\    /   O peration     | Version:  5.0                                   |
|   \\  /    A nd           | Web:      www.OpenFOAM.org                      |
|    \\/     M anipulation  |                                                 |
\*---------------------------------------------------------------------------*/
FoamFile
{
    version     2.0;
    format      ascii;
    class       volScalarField;
    location    "600/air";
    object      epsilon;
}
// * * * * * * * * * * * * * * * * * * * * * * * * * * * * * * * * * * * * * //

dimensions      [0 2 -3 0 0 0 0];

internalField   nonuniform List<scalar> 
243000
(
7.75277
8.81544
9.10174
9.13096
8.90287
8.50215
7.98687
7.41716
6.83336
6.27686
5.77844
5.37598
5.06149
4.75972
4.41536
4.02345
3.59415
3.15069
2.70947
2.26881
1.75885
0.314873
0.287524
1.83707
2.13697
2.4756
2.72281
2.94325
3.20825
3.6935
4.5361
5.07405
4.92004
4.66054
4.3226
3.94463
3.5588
3.18726
2.8396
2.52671
2.25304
2.02226
1.8197
1.63683
1.47828
1.34041
1.21289
1.0917
0.969667
0.840013
0.690363
0.50733
0.540962
0.921231
1.165
1.40457
1.65583
1.89682
2.17917
2.58446
5.99347
6.69117
6.51356
6.1849
5.74321
5.24738
4.7385
4.24575
3.78199
3.36351
2.99716
2.68621
2.4075
2.1522
1.93168
1.74287
1.57189
1.41241
1.2506
1.07684
0.88915
0.660822
0.640438
1.14912
1.5411
1.91236
2.31619
2.6794
3.07106
3.6039
7.06245
7.82154
7.67082
7.32878
6.84646
6.29361
5.71549
5.14575
4.60236
4.10788
3.67304
3.30349
2.96839
2.6554
2.37978
2.14084
1.92447
1.72368
1.51914
1.29992
1.07395
0.806403
0.70258
1.28635
1.83688
2.34527
2.90093
3.37937
3.85819
4.46085
7.85364
8.59299
8.48419
8.16074
7.67985
7.11325
6.5061
5.89475
5.30151
4.75558
4.27366
3.86399
3.48915
3.1319
2.80918
2.52381
2.26372
2.02217
1.77545
1.51384
1.25205
0.951699
0.774397
1.33923
2.0484
2.6927
3.39313
3.98494
4.53613
5.17221
8.41312
9.09468
9.03046
8.74385
8.2914
7.74042
7.13292
6.50648
5.8869
5.30962
4.79802
4.36357
3.96278
3.57298
3.2109
2.88424
2.58437
2.30452
2.01794
1.71923
1.42565
1.0991
0.869396
1.33474
2.20029
2.95484
3.77632
4.48598
5.10154
5.74991
8.7782
9.39225
9.3699
9.13005
8.72257
8.20626
7.61837
6.99651
6.36858
5.77608
5.24896
4.80203
4.38627
3.97391
3.57987
3.2178
2.88292
2.5683
2.24475
1.9155
1.59497
1.2479
0.978198
1.31424
2.29773
3.14854
4.05577
4.86956
5.5482
6.20087
8.97942
9.53354
9.54898
9.36021
9.00712
8.53727
7.98267
7.37921
6.75693
6.16214
5.63087
5.18099
4.75899
4.33216
3.91335
3.5221
3.1573
2.81215
2.4547
2.10194
1.75963
1.39673
1.09562
1.30064
2.35254
3.27777
4.23888
5.14888
5.87605
6.53031
9.03438
9.52887
9.60248
9.46688
9.17014
8.75355
8.24188
7.66723
7.0614
6.47489
5.94865
5.50314
5.08158
4.64662
4.21001
3.79592
3.40642
3.03535
2.64777
2.27825
1.91921
1.54403
1.21737
1.30319
2.3759
3.3537
4.33549
5.32574
6.09944
6.75372
8.97412
9.43449
9.56137
9.48879
9.24512
8.87965
8.41045
7.87014
7.28994
6.72068
6.20704
5.77154
5.35529
4.91739
4.46959
4.03901
3.63025
3.23757
2.82508
2.4449
2.07334
1.68858
1.34089
1.32421
2.3736
3.39007
4.37407
5.41178
6.2238
6.8802
8.8287
9.27238
9.44474
9.43358
9.2537
8.93581
8.50929
8.00294
7.45006
6.90515
6.41015
5.98945
5.58159
5.14555
4.69269
4.25189
3.82937
3.41921
2.99045
2.60314
2.22196
1.82935
1.46523
1.37489
2.32618
3.40021
4.39001
5.42438
6.26654
6.92467
8.61081
9.05328
9.26981
9.31648
9.19879
8.93743
8.55071
8.07854
7.55395
7.03422
6.56276
6.15959
5.76278
5.33289
4.88067
4.43568
4.00477
3.58113
3.14679
2.75309
2.36442
1.96528
1.58817
1.43934
2.25936
3.38564
4.37504
5.36667
6.24049
6.90098
8.33423
8.78661
9.04894
9.14932
9.09039
8.88444
8.54495
8.10651
7.6105
7.11617
6.66929
6.28538
5.9016
5.48177
5.03549
4.592
4.15783
3.72446
3.29116
2.89403
2.50011
2.09537
1.70784
1.50918
2.18485
3.34466
4.32369
5.24734
6.14495
6.81218
8.01085
8.48106
8.79111
8.94162
8.93837
8.78263
8.4904
8.09228
7.62752
7.1586
6.73414
6.37042
6.00135
5.59509
5.15959
4.72278
4.29008
3.85081
3.42338
3.02592
2.62884
2.21936
1.82249
1.57872
2.10589
3.28197
4.24688
5.12085
5.98831
6.66452
7.65195
8.14601
8.50183
8.70132
8.74866
8.64145
8.39152
8.03525
7.60727
7.16782
6.76507
6.41824
6.0657
5.67634
5.25586
4.83031
4.40319
3.96225
3.54468
3.14962
2.75108
2.33753
1.93134
1.64778
2.02463
3.20213
4.15203
4.98521
5.78304
6.4688
7.26932
7.78957
8.18596
8.43406
8.52695
8.46546
8.2562
7.93863
7.55026
7.14441
6.76781
6.4369
6.09896
5.72926
5.32741
4.91715
4.49905
4.06203
3.65737
3.26669
2.86784
2.45071
2.03567
1.71548
1.9453
3.10917
4.04323
4.8375
5.56013
6.2359
6.8919
7.41949
7.84955
8.14398
8.27805
8.25909
8.08901
7.80896
7.45897
7.08957
6.74153
6.43064
6.10892
5.75796
5.37762
4.98599
4.57973
4.15604
3.76423
3.37889
2.98051
2.56023
2.13556
1.78202
1.87337
3.00591
3.92456
4.68387
5.35246
5.97557
6.54694
7.05761
7.50182
7.83408
8.00657
8.02644
7.89402
7.65174
7.33983
7.00661
6.68775
6.39832
6.09734
5.7675
5.40996
5.03901
4.64718
4.24489
3.86644
3.48757
3.09053
2.66722
2.2324
1.84874
1.8264
2.88569
3.79923
4.527
5.14919
5.70023
6.2265
6.72626
7.16311
7.51108
7.71803
7.77206
7.67582
7.47075
7.19782
6.9008
6.61127
6.34408
6.06445
5.76017
5.42684
5.078
4.70339
4.32739
3.96463
3.59405
3.19956
2.77349
2.32817
1.91846
1.80113
2.75581
3.67001
4.36932
4.95338
5.45906
5.92528
6.41938
6.84949
7.19058
7.41828
7.50061
7.43803
7.26951
7.03558
6.77391
6.51427
6.27072
6.01434
5.73612
5.4297
5.1041
4.75136
4.40507
4.06025
3.6999
3.30944
2.88122
2.42579
1.99145
1.79555
2.62497
3.53948
4.21277
4.765
5.23976
5.64084
6.13242
6.55763
6.89279
7.12103
7.2169
7.18414
7.05026
6.85411
6.62795
6.39826
6.17951
5.9479
5.69682
5.41794
5.11848
4.79953
4.48138
4.15539
3.80699
3.42229
2.99341
2.52852
2.07111
1.81043
2.50311
3.41099
4.05938
4.584
5.03639
5.37239
5.86303
6.28435
6.61439
6.8439
6.94472
6.92781
6.81895
6.65717
6.46575
6.26619
6.07292
5.86697
5.64384
5.39501
5.13084
4.85001
4.55931
4.25276
3.9178
3.54094
3.11307
2.63939
2.16034
1.84274
2.39843
3.28884
3.91229
4.41196
4.84685
5.12073
5.61016
6.02701
6.35243
6.58337
6.69312
6.69339
6.61008
6.47795
6.31752
6.14619
5.9761
5.79623
5.60197
5.38792
5.15683
4.90851
4.64389
4.35715
4.03699
3.67009
3.24501
2.76349
2.26265
1.8928
2.32006
3.18004
3.77672
4.25255
4.67204
4.88758
5.37317
5.78341
6.10539
6.3395
6.46071
6.47847
6.42155
6.31977
6.1906
6.04853
5.90376
5.75023
5.58449
5.40207
5.20234
4.98419
4.74523
4.47899
4.17479
3.8193
3.39878
2.91046
2.38574
1.96772
2.27529
3.09201
3.66038
4.11289
4.51642
4.67578
5.15357
5.5562
5.87584
6.11251
6.24672
6.28224
6.25327
6.18307
6.08629
5.97532
5.85914
5.73561
5.601
5.45183
5.28529
5.09857
4.88662
4.64205
4.35443
4.01021
3.59374
3.09685
2.54421
2.07392
2.27884
3.0308
3.56793
3.99687
4.38305
4.49702
4.96138
5.35272
5.66797
5.90675
6.05574
6.11103
6.11286
6.0773
6.01768
5.94479
5.86604
5.78147
5.68793
5.5813
5.45583
5.30572
5.12335
4.9009
4.62804
4.29085
3.8721
3.35969
2.7681
2.23176
2.3409
3.01974
3.5159
3.9166
4.28164
4.37598
4.82263
5.19903
5.50845
5.74951
5.91977
6.00332
6.04599
6.0584
6.05236
6.03701
6.01867
5.99721
5.96754
5.92312
5.85265
5.74521
5.5923
5.38559
5.11584
4.77061
4.3334
3.78716
3.13731
2.50841
2.51541
3.09802
3.54947
3.9161
4.24759
4.42161
4.85027
5.22112
5.54218
5.80874
6.02762
6.17474
6.29648
6.39926
6.49239
6.58694
6.68691
6.78327
6.8613
6.90522
6.89793
6.82543
6.68047
6.45807
6.15257
5.75752
5.25911
4.64103
3.90588
3.15379
3.02527
3.46159
3.83575
4.13839
4.40984
5.55151
6.0073
6.43216
6.82982
7.19182
7.52896
7.83729
8.14157
8.4229
8.70153
9.0137
9.34517
9.63967
9.86719
9.99896
10.0208
9.92335
9.71436
9.39992
8.97021
8.44211
7.81238
7.07221
6.23971
5.37138
5.02434
5.23909
5.45917
5.61728
5.7565
14.9127
15.3762
15.8263
16.2509
16.5753
16.7793
17.0929
17.4589
17.7023
17.9627
18.4395
18.9651
19.2928
19.4482
19.4169
19.2678
18.9802
18.6343
18.2427
17.715
17.1813
16.6681
16.1576
15.6341
15.2068
15.1116
15.264
15.3756
15.3849
15.3615
13.9987
17.0298
18.1684
18.4971
18.1594
17.3416
16.2009
14.8783
13.4626
12.0536
10.7227
9.55991
8.50271
7.41857
6.29008
5.17251
4.0851
3.12568
2.31165
1.65598
1.56779
0.315909
1.48045
2.22892
2.72252
3.3993
3.54922
3.62678
4.01656
5.08399
8.8538
9.91404
10.5122
10.7344
10.6088
10.1935
9.56307
8.7972
7.95763
7.09663
6.24972
5.49128
4.77939
4.09642
3.48983
2.98004
2.53326
2.14356
1.76099
1.3139
0.888656
0.568805
0.779088
1.2061
1.83871
2.67448
3.17458
3.33416
3.62412
4.15921
8.07797
8.73914
9.08249
9.19891
9.10592
8.81516
8.35506
7.7692
7.10253
6.4001
5.69461
5.04695
4.41677
3.7953
3.2538
2.82261
2.46732
2.16965
1.86816
1.47505
1.02938
0.693339
0.770552
1.24505
1.95049
2.86168
3.51908
3.74952
4.00818
4.40945
7.82141
8.27249
8.48187
8.54119
8.46625
8.25011
7.89477
7.42025
6.85666
6.24581
5.63891
5.0709
4.47902
3.87332
3.33945
2.91947
2.58624
2.31693
2.04554
1.68182
1.22112
0.826957
0.839134
1.33373
2.09205
3.06887
3.84246
4.14391
4.38721
4.74077
7.66822
7.95632
8.08023
8.11149
8.05728
7.90012
7.62423
7.2342
6.75119
6.222
5.68537
5.17251
4.61465
4.0184
3.48183
3.05897
2.73248
2.47833
2.22825
1.88477
1.41572
0.978808
0.947748
1.43085
2.21428
3.2274
4.07381
4.44899
4.69275
5.0227
7.52413
7.67192
7.73749
7.7582
7.72822
7.62139
7.40955
7.08772
6.67584
6.21442
5.7341
5.26988
4.74108
4.15461
3.61681
3.19102
2.86981
2.63051
2.40612
2.07437
1.60396
1.14293
1.07839
1.51945
2.31732
3.33769
4.23042
4.6563
4.91092
5.22985
7.34651
7.38717
7.41539
7.4371
7.43345
7.3704
7.21066
6.94797
6.5935
6.19043
5.76225
5.33762
4.83623
4.2626
3.72822
3.3034
2.98985
2.768
2.56903
2.24862
1.78325
1.31256
1.21693
1.59947
2.40116
3.41062
4.31652
4.783
5.04436
5.36079
7.12794
7.09391
7.10379
7.13485
7.15691
7.13207
7.01813
6.80204
6.49439
6.1416
5.76633
5.37446
4.89444
4.33802
3.81282
3.39407
3.09186
2.88999
2.7145
2.40802
1.954
1.48253
1.35584
1.67448
2.46587
3.45199
4.34821
4.84478
5.112
5.42305
6.8717
6.79391
6.80191
6.84759
6.89301
6.90048
6.824
6.64655
6.3794
6.0653
5.73683
5.38263
4.92134
4.38193
3.87179
3.46439
3.17758
2.99812
2.84328
2.55445
2.11766
1.64959
1.49012
1.74503
2.51156
3.46786
4.3327
4.85485
5.12643
5.42973
6.5889
6.49481
6.51166
6.57442
6.64075
6.67328
6.62723
6.48135
6.2482
5.96915
5.67497
5.35542
4.92302
4.40009
3.90843
3.51704
3.24925
3.09433
2.95739
2.69059
2.27548
1.81255
1.61772
1.81122
2.53903
3.45729
4.2688
4.80426
5.08036
5.36261
6.29091
6.20216
6.2339
6.31367
6.39861
6.45031
6.4284
6.30794
6.10285
5.85484
5.59038
5.2961
4.89133
4.39884
3.92635
3.55519
3.30918
3.17877
3.05969
2.81843
2.42862
1.97228
1.7374
1.87449
2.54986
3.42413
4.18242
4.70718
4.98234
5.24874
5.98602
5.91925
5.96887
6.06435
6.16496
6.23166
6.22848
6.12831
5.9465
5.72492
5.48712
5.21468
4.83462
4.37236
3.92956
3.58225
3.36042
3.25393
3.15378
2.93982
2.57755
2.12863
1.85278
1.93395
2.54674
3.37246
4.08558
4.58012
4.84385
5.09847
5.68145
5.64824
5.7166
5.82618
5.93953
6.0177
6.02875
5.94486
5.78249
5.58356
5.36924
5.11628
4.76113
4.33108
3.92035
3.60177
3.40695
3.32352
3.24365
3.05754
2.72298
2.28107
1.97058
1.99152
2.53199
3.31882
3.98105
4.434
4.68336
4.92262
5.38404
5.39057
5.47727
5.59925
5.72261
5.80929
5.83073
5.76018
5.61446
5.43521
5.24145
5.00649
4.67676
4.28066
3.90473
3.61801
3.45381
3.39199
3.33341
3.17496
2.86653
2.43305
2.08744
2.05181
2.50838
3.25974
3.87503
4.28884
4.50987
4.73001
5.10243
5.14622
5.25111
5.38386
5.51474
5.60754
5.63642
5.57712
5.44631
5.28466
5.1092
4.89157
4.5879
4.22718
3.88834
3.63598
3.50392
3.46435
3.42781
3.29624
3.0115
2.58737
2.20923
2.10702
2.47677
3.19471
3.77116
4.14532
4.33194
4.52859
4.8441
4.9186
5.03915
5.18065
5.31684
5.41396
5.44844
5.39919
5.28248
5.1373
4.97883
4.77862
4.50189
4.17776
3.87812
3.66253
3.56296
3.54672
3.5327
3.42669
3.16354
2.74753
2.33935
2.16001
2.44486
3.12735
3.67171
4.00737
4.16303
4.32696
4.62315
4.71367
4.84374
4.99099
5.13053
5.23074
5.27015
5.23091
5.12865
4.99981
4.85779
4.67621
4.42756
4.14098
3.88286
3.70833
3.6401
3.64747
3.6557
3.57397
3.33046
2.91833
2.47858
2.21846
2.41345
3.06071
3.5785
3.87882
4.00972
4.13327
4.44067
4.54019
4.67006
4.81822
4.95927
5.06197
5.10656
5.07858
4.99222
4.88086
4.75562
4.595
4.3758
4.13128
3.91548
3.78243
3.747
3.77818
3.80763
3.74921
3.52314
3.10772
2.62775
2.28884
2.39074
2.99681
3.49232
3.76099
3.87182
3.95797
4.28906
4.40004
4.52661
4.6695
4.80975
4.91488
4.96569
4.95125
4.88319
4.79165
4.68549
4.54948
4.36736
4.16224
3.99445
3.9029
3.90059
3.9556
4.0055
3.96925
3.75767
3.33284
2.80142
2.37682
2.38804
2.93922
3.41279
3.65441
3.75105
3.81373
4.16428
4.28832
4.41793
4.55563
4.69361
4.80119
4.86
4.86238
4.81556
4.74908
4.66963
4.56242
4.4181
4.26241
4.14551
4.09697
4.12751
4.20693
4.27659
4.26079
4.05974
3.61916
3.02207
2.49644
2.40869
2.89329
3.33995
3.56039
3.64916
3.69954
4.06388
4.20521
4.34647
4.4881
4.62696
4.73971
4.81011
4.83287
4.81651
4.78171
4.73568
4.66645
4.57169
4.47094
4.40901
4.40898
4.47519
4.57978
4.66802
4.66893
4.47214
4.0062
3.32408
2.671
2.45468
2.86466
3.27861
3.48207
3.56927
3.61618
3.991
4.15272
4.31022
4.46202
4.61285
4.74393
4.84279
4.89493
4.91909
4.93025
4.93256
4.91693
4.8852
4.85233
4.85956
4.92093
5.03016
5.1631
5.26807
5.27659
5.07046
4.55868
3.76464
2.93606
2.54877
2.86999
3.24289
3.42989
3.51648
3.56618
3.94873
4.132
4.31584
4.50277
4.69177
4.85898
4.99536
5.09636
5.18115
5.26063
5.33839
5.40567
5.46699
5.53323
5.64512
5.79498
5.96619
6.13584
6.25288
6.24763
5.99896
5.39897
4.44096
3.35439
2.72347
2.91735
3.25699
3.433
3.5165
3.56732
3.94414
4.1766
4.4154
4.65622
4.90165
5.13244
5.33587
5.52131
5.70955
5.90366
6.10565
6.31893
6.54104
6.7798
7.0746
7.37914
7.65638
7.87925
7.99389
7.91837
7.54574
6.76654
5.53951
4.05553
3.02953
3.05786
3.34111
3.50672
3.589
3.64545
4.05432
4.36064
4.6807
5.00747
5.34978
5.70186
6.03754
6.39027
6.77737
7.18244
7.60412
8.08354
8.61977
9.1969
9.85248
10.4592
10.9297
11.2218
11.2764
10.992
10.2988
9.1327
7.44379
5.32715
3.63833
3.41328
3.61919
3.75743
3.82574
3.8808
4.44391
4.8689
5.3252
5.81617
6.35009
6.96044
7.58629
8.26457
9.02284
9.84799
10.7493
11.7526
12.9199
14.1851
15.5613
16.7349
17.5038
17.8235
17.6248
16.81
15.3915
13.4171
10.908
7.79011
5.0434
4.33692
4.39215
4.44803
4.46084
4.48615
5.67254
6.31011
7.05679
7.92188
8.89072
10.0052
11.203
12.5622
14.0868
15.7634
17.6246
19.7314
22.0847
24.5813
27.1291
29.0378
29.9976
30.0144
29.0553
27.1139
24.3651
21.0399
17.2546
12.7709
8.59789
6.96162
6.6364
6.44827
6.25521
6.13975
9.727
10.8488
12.266
13.8996
15.7407
17.8469
20.181
22.8217
25.7128
28.8273
32.2113
35.9293
39.8287
43.533
46.6488
48.1989
48.1506
46.6193
43.9504
40.5591
36.6612
32.2713
27.532
22.31
17.2557
14.4768
13.4448
12.6278
11.7972
11.1488
22.6436
24.6676
27.1804
29.9814
33.0395
36.3368
39.9305
43.8079
47.8186
51.9116
55.9788
59.7194
62.759
64.4752
63.9224
61.4753
58.1743
54.414
50.5711
46.8287
43.3478
40.0984
36.9013
33.7957
31.7799
30.4384
29.8693
28.8625
27.278
25.5652
43.9439
47.1525
50.3839
53.495
56.3862
59.031
61.4792
63.6271
65.4103
66.8875
67.6881
67.1107
65.2194
62.3781
58.238
53.5252
49.1238
45.1468
41.7737
39.0157
36.9889
35.658
34.8833
34.6801
35.8313
38.3369
40.5249
42.3098
43.7861
45.2319
20.0966
24.9957
26.5746
27.1734
26.8111
25.6975
24.0444
22.0479
19.8256
17.5075
15.1631
12.9288
10.7178
8.61118
6.85276
5.54429
4.53508
4.24702
4.45462
4.44995
2.77349
1.99347
2.61165
3.67533
4.60909
6.05248
6.67018
6.57933
6.67485
7.14996
11.4925
12.6579
13.2348
13.5609
13.54
13.1697
12.5065
11.6254
10.595
9.47146
8.28452
7.09865
5.89092
4.8708
4.19486
3.78816
3.46189
3.36261
3.46494
3.56025
2.43074
1.60607
1.93546
2.63668
3.57459
4.49033
5.00337
5.21106
5.49646
5.9359
10.4637
10.9518
11.1632
11.2346
11.1519
10.8928
10.4497
9.84003
9.09829
8.25982
7.34611
6.39794
5.38756
4.55152
4.02916
3.73017
3.47419
3.32301
3.37489
3.47717
2.66887
1.97514
2.25139
2.89959
3.80977
4.67971
5.20337
5.46089
5.77496
6.20661
10.1203
10.2988
10.3393
10.3
10.1939
9.99536
9.67018
9.20736
8.62031
7.92989
7.1502
6.34392
5.42515
4.64451
4.1488
3.84784
3.58066
3.3652
3.36338
3.45114
2.92262
2.39103
2.61652
3.21128
4.08195
4.94921
5.50258
5.77578
6.07111
6.47467
9.86127
9.83922
9.77991
9.6981
9.60129
9.45797
9.21951
8.85991
8.38005
7.79293
7.13043
6.41049
5.55034
4.80362
4.30431
3.9757
3.68187
3.41839
3.37836
3.45392
3.13951
2.73968
2.91359
3.46712
4.30034
5.16998
5.72784
6.01131
6.27769
6.65704
9.55774
9.39762
9.28814
9.20359
9.13561
9.04579
8.87764
8.59723
8.19972
7.70251
7.13242
6.47667
5.67061
4.95108
4.44182
4.08239
3.76473
3.47951
3.43429
3.49305
3.3022
3.00826
3.14723
3.6591
4.45324
5.31456
5.86449
6.14696
6.39399
6.7515
9.18571
8.94452
8.81869
8.75468
8.72514
8.68547
8.57587
8.35849
8.0279
7.60123
7.1136
6.51645
5.76145
5.06909
4.55032
4.16399
3.83185
3.56119
3.5023
3.53751
3.41696
3.20422
3.31722
3.79329
4.55264
5.38126
5.92547
6.20759
6.43838
6.77018
8.75829
8.48227
8.36444
8.33393
8.34482
8.34951
8.28855
8.1223
7.84662
7.48172
7.05935
6.52682
5.81856
5.15447
4.62935
4.2232
3.88836
3.64632
3.5723
3.58017
3.49353
3.34055
3.42648
3.87283
4.59891
5.38286
5.92201
6.20942
6.41601
6.69444
8.29444
8.02015
7.92844
7.93704
7.9846
8.02548
8.00519
7.88078
7.65068
7.33992
6.96972
6.5013
5.84648
5.20822
4.68154
4.26444
3.94065
3.72837
3.64154
3.62046
3.54255
3.42477
3.49179
3.90441
4.5892
5.29991
5.83332
6.12722
6.31161
6.5537
7.81793
7.56887
7.51515
7.56031
7.64002
7.71011
7.72184
7.6316
7.43958
7.17583
6.85493
6.43812
5.85004
5.23429
4.71091
4.29263
3.99579
3.80588
3.71154
3.66096
3.57546
3.46981
3.52405
3.89126
4.52462
5.18103
5.68649
5.98805
6.15756
6.3636
7.3469
7.1364
7.12502
7.20219
7.30944
7.40277
7.43804
7.37577
7.21552
6.99282
6.71874
6.35025
5.82352
5.24058
4.72206
4.31301
4.05044
3.88015
3.7818
3.70484
3.60164
3.48908
3.52041
3.83451
4.41846
5.03467
5.50241
5.80895
5.96563
6.1386
6.89197
6.72941
6.7577
6.86238
6.99225
7.10362
7.15574
7.11576
6.98229
6.79599
6.56608
6.24445
5.7694
5.22365
4.72274
4.33185
4.10541
3.9527
3.85199
3.75492
3.62772
3.49758
3.48596
3.74899
4.28565
4.86853
5.30774
5.60146
5.74538
5.8905
6.46001
6.35225
6.41343
6.54152
6.68897
6.81338
6.87733
6.855
6.7447
6.59123
6.40273
6.12618
5.69941
5.1891
4.71483
4.35713
4.16411
4.028
3.92699
3.81274
3.65894
3.50367
3.44707
3.65071
4.13792
4.69082
5.10513
5.37746
5.50673
5.62954
6.05648
6.00574
6.09364
6.24038
6.40045
6.53337
6.60538
6.59761
6.50834
6.38522
6.23533
6.00178
5.61993
5.14827
4.71177
4.399
4.23192
4.11305
4.01553
3.88807
3.7066
3.51453
3.41247
3.54989
3.9847
4.50944
4.90077
5.15123
5.25926
5.36422
5.68708
5.69003
5.79894
5.9595
6.12773
6.26568
6.34329
6.34828
6.27972
6.1855
6.07195
5.87864
5.53995
5.11142
4.72296
4.46182
4.31843
4.21771
4.12741
3.9908
3.78025
3.54062
3.38953
3.45657
3.83444
4.33132
4.70131
4.92894
5.01347
5.10277
5.36061
5.40427
5.53013
5.69995
5.87263
6.0134
6.09593
6.11293
6.06657
6.00088
5.92216
5.76672
5.47216
5.09664
4.76766
4.5556
4.43583
4.35531
4.27529
4.13266
3.8931
3.59872
3.38571
3.37747
3.69459
4.16221
4.51257
4.71684
4.78229
4.85247
5.0801
5.15415
5.28992
5.46444
5.6389
5.78169
5.87014
5.90017
5.87878
5.84253
5.79844
5.68049
5.43421
5.11946
4.86362
4.69488
4.60217
4.54424
4.47715
4.33064
4.06141
3.70176
3.40173
3.32059
3.57076
4.00685
4.33908
4.52043
4.56917
4.62074
4.84249
4.94012
5.08482
5.25894
5.43382
5.57933
5.67642
5.72263
5.72974
5.72588
5.7182
5.64166
5.45301
5.21259
5.03025
4.90467
4.8452
4.81242
4.76036
4.61037
4.30731
3.87082
3.46554
3.29241
3.46867
3.87003
4.18392
4.34425
4.3791
4.41869
4.64611
4.76233
4.91574
5.09405
5.26981
5.42002
5.53043
5.59847
5.63986
5.67301
5.70895
5.68218
5.56492
5.4096
5.29837
5.2252
5.2072
5.20386
5.16844
5.01295
4.66805
4.13789
3.59784
3.30297
3.39741
3.75671
4.05067
4.19224
4.21722
4.24982
4.49013
4.62266
4.78703
4.9761
5.16084
5.32509
5.45589
5.5522
5.63438
5.72084
5.8121
5.85198
5.81991
5.75197
5.72454
5.72234
5.75811
5.79101
5.77404
5.60711
5.2068
4.55624
3.83257
3.37238
3.37765
3.6769
3.94331
4.06953
4.08931
4.1189
4.37439
4.52657
4.70832
4.9119
5.11165
5.29865
5.46989
5.61975
5.76083
5.91614
6.0826
6.20903
6.27826
6.31814
6.40866
6.50702
6.61876
6.70073
6.70326
6.51212
6.03243
5.22029
4.23751
3.53285
3.4103
3.65335
3.872
3.98476
4.00402
4.03277
4.30471
4.47807
4.67641
4.90279
5.14977
5.39889
5.62782
5.84401
6.06998
6.32362
6.59795
6.84599
7.05695
7.25344
7.52215
7.77563
8.00567
8.16011
8.18162
7.94117
7.33908
6.28224
4.93535
3.84787
3.53094
3.6951
3.87824
3.95931
3.97829
4.00367
4.28405
4.49431
4.74692
5.03652
5.35092
5.67608
5.99332
6.31462
6.66947
7.07127
7.51028
7.9453
8.37538
8.8209
9.37951
9.88929
10.3121
10.58
10.6141
10.2774
9.40696
7.97415
6.11935
4.43564
3.80555
3.85313
3.98001
4.03635
4.04479
4.06581
4.38975
4.66826
5.00156
5.38125
5.79945
6.25068
6.71387
7.2071
7.76868
8.40728
9.11368
9.85693
10.6513
11.5179
12.5682
13.5066
14.2416
14.6814
14.6887
14.0031
12.6511
10.6551
8.10833
5.55793
4.40352
4.24292
4.28683
4.29626
4.27281
4.28327
4.74472
5.12951
5.59365
6.12505
6.7203
7.38603
8.10198
8.88928
9.80035
10.8379
11.9987
13.2695
14.6885
16.2732
18.1317
19.7341
20.9189
21.3335
20.8801
19.5718
17.5119
14.7741
11.3895
7.74193
5.71237
5.15695
5.03134
4.93226
4.83612
4.80795
5.68882
6.24151
6.93481
7.73634
8.6469
9.6935
10.8624
12.1696
13.6857
15.4072
17.3403
19.4951
21.9348
24.636
27.6106
29.9778
30.8969
30.5993
29.2797
27.0972
24.2096
20.6978
16.52
11.8518
8.66872
7.32947
6.82545
6.46664
6.18546
6.03728
8.19174
9.0315
10.1427
11.4356
12.915
14.6325
16.593
18.791
21.3011
24.1028
27.2092
30.6395
34.4325
38.3778
42.0555
43.3889
43.0427
41.3791
38.8963
35.8114
32.2835
28.3291
23.8177
18.9006
15.1116
12.5481
11.2966
10.3278
9.57649
9.08401
15.08
16.3793
18.179
20.2556
22.6167
25.3242
28.4179
31.8328
35.5928
39.6363
43.9475
48.462
52.9811
56.4873
57.8028
56.5731
53.9677
50.5451
46.9171
43.2777
39.7413
36.1992
32.4297
28.6923
25.8381
23.7305
21.8389
19.932
18.3048
17.0137
31.8655
33.7592
36.2084
38.9398
41.9647
45.3081
49.0561
53.0702
57.2428
61.4566
65.5462
68.9041
70.5775
69.9041
67.2192
62.4145
57.3141
52.4089
48.1915
44.7198
42.0342
39.9609
38.2376
37.0845
37.0831
37.6248
38.1228
37.8717
36.5528
34.9819
50.4058
54.0219
57.2935
60.1046
62.6152
65.092
67.6296
70.0983
72.3396
74.1745
75.0186
73.9252
70.9201
66.311
60.4089
53.5602
47.5144
42.5167
38.7049
36.0273
34.4584
33.8467
34.0097
35.0165
37.336
40.6152
43.7398
46.5459
49.1289
51.7177
26.4362
33.0449
34.7832
35.489
35.1103
33.764
31.6635
29.0408
26.0246
22.7813
19.3385
15.8727
12.3188
9.45872
8.04648
8.34468
10.0563
13.3919
14.9765
15.3954
14.1718
11.1456
9.90975
11.0274
12.4387
12.7531
12.4448
11.4643
10.7472
10.2806
14.444
15.7742
16.1849
16.463
16.4709
16.107
15.3931
14.3909
13.1686
11.7768
10.244
8.58929
6.83621
5.71569
5.50098
5.99524
6.90291
8.77983
9.72212
10.1552
9.88866
8.60554
7.90027
8.1139
8.47296
8.49381
8.41724
8.15791
8.15223
8.28198
13.0436
13.3943
13.4112
13.3762
13.2527
12.9856
12.5342
11.8887
11.066
10.0848
8.95339
7.67426
6.25416
5.44163
5.3596
5.7317
6.33643
7.73231
8.58068
9.0616
9.02699
8.30841
7.89103
8.02158
8.21832
8.22524
8.19996
8.04593
8.16713
8.41217
12.5419
12.4837
12.3181
12.1589
11.9951
11.7843
11.466
10.9998
10.3755
9.59296
8.64252
7.5424
6.27815
5.57085
5.4808
5.70932
6.09822
7.15837
7.93709
8.44316
8.5077
8.09931
7.89671
8.08156
8.26288
8.29699
8.29854
8.18159
8.30586
8.5556
12.1446
11.8475
11.5922
11.3949
11.2428
11.0907
10.8674
10.5194
10.0243
9.37032
8.55636
7.57743
6.39819
5.75852
5.62964
5.72452
5.94557
6.72984
7.40911
7.90334
8.02216
7.81945
7.77588
8.034
8.27439
8.34777
8.37248
8.2882
8.38262
8.62371
11.6824
11.2522
10.9682
10.7829
10.6713
10.5804
10.4331
10.1717
9.76989
9.21293
8.51187
7.61619
6.52402
5.93788
5.76262
5.73954
5.82587
6.38589
6.94537
7.40772
7.57327
7.50558
7.56118
7.86835
8.18316
8.31531
8.36501
8.31588
8.38913
8.60315
11.143
10.6544
10.3835
10.24
10.1814
10.1484
10.0637
9.8689
9.53843
9.06072
8.45113
7.63312
6.63889
6.09801
5.87305
5.74872
5.73764
6.12126
6.58028
6.99086
7.17723
7.18798
7.31082
7.62203
7.98814
8.19194
8.27622
8.2596
8.30213
8.46737
10.5465
10.0586
9.82708
9.74085
9.73715
9.75369
9.72006
9.5777
9.30383
8.89414
8.35793
7.62747
6.74255
6.23811
5.96236
5.75408
5.68926
5.92171
6.27775
6.62252
6.81016
6.86423
7.02275
7.33778
7.71533
7.98565
8.10909
8.12525
8.14652
8.25295
9.91693
9.47619
9.30107
9.27693
9.32134
9.37823
9.3855
9.28516
9.05769
8.7087
8.23853
7.59988
6.83536
6.35853
6.03369
5.75983
5.66118
5.76889
6.02364
6.29572
6.46597
6.53831
6.70774
7.02248
7.40645
7.71116
7.8732
7.92187
7.92941
7.98465
9.29184
8.91797
8.8093
8.84105
8.92601
9.01597
9.05323
8.98736
8.79939
8.5063
8.10427
7.56069
6.916
6.45946
6.09099
5.77231
5.64151
5.65379
5.81381
6.01335
6.14694
6.21804
6.37931
6.68626
7.07125
7.38859
7.58338
7.66077
7.66162
7.68114
8.68808
8.39002
8.3505
8.42822
8.54791
8.6638
8.72302
8.68536
8.53247
8.29261
7.96255
7.51716
6.98331
6.54206
6.1392
5.80082
5.63416
5.57464
5.6484
5.7723
5.85923
5.91198
6.05052
6.34002
6.72112
7.04807
7.25732
7.35655
7.3561
7.35584
8.12054
7.89961
7.92202
8.03789
8.18624
8.32173
8.39674
8.38263
8.26268
8.0755
7.82089
7.4753
7.04222
6.60928
6.18482
5.84715
5.64424
5.53135
5.53013
5.57783
5.61153
5.63012
5.73381
5.9948
6.36573
6.69839
6.91132
7.02559
7.02726
7.01871
7.5908
7.45207
7.52232
7.67053
7.84122
7.991
8.07783
8.08398
7.99718
7.86345
7.6867
7.43867
7.08967
6.66633
6.23703
5.90836
5.68041
5.5274
5.4641
5.43785
5.40954
5.38328
5.441
5.66328
6.01631
6.34983
6.56321
6.68309
6.68786
6.679
7.10336
7.04591
7.15317
7.32687
7.51392
7.67368
7.77074
7.79531
7.74406
7.66518
7.56704
7.41034
7.13043
6.72194
6.31019
5.98918
5.75121
5.57262
5.4571
5.36283
5.26425
5.18089
5.18289
5.35703
5.68441
6.01355
6.22395
6.34224
6.34911
6.34481
6.66301
6.67868
6.81487
7.00772
7.20613
7.37319
7.48035
7.52466
7.51231
7.48975
7.46887
7.39825
7.17347
6.79015
6.42144
6.10653
5.87061
5.67923
5.52603
5.36282
5.1894
5.03082
4.96922
5.08491
5.37928
5.69867
5.90259
6.01436
6.02175
6.02423
6.27678
6.34656
6.50773
6.71473
6.92102
7.0947
7.21404
7.28387
7.31283
7.34728
7.40008
7.40723
7.23384
6.89261
6.5774
6.28099
6.05852
5.86679
5.68872
5.46953
5.19314
4.94559
4.80723
4.85411
5.10771
5.41199
5.60648
5.70832
5.71636
5.72536
5.94318
6.05421
6.23453
6.45172
6.66427
6.84613
6.98196
7.08272
7.15793
7.24851
7.37558
7.4546
7.33604
7.0628
6.80125
6.54167
6.34537
6.16646
5.97406
5.70436
5.3321
4.93567
4.70192
4.67253
4.87537
5.15912
5.34159
5.43146
5.43913
5.45602
5.66018
5.802
5.99969
6.22642
6.44512
6.63929
6.79787
6.93399
7.05612
7.21338
7.41926
7.5698
7.51822
7.32688
7.13385
6.9314
6.77912
6.62543
6.42998
6.10551
5.62434
5.06612
4.66764
4.54909
4.68873
4.94514
5.11316
5.1899
5.19685
5.22434
5.4267
5.59171
5.80602
6.04513
6.27814
6.49169
6.67907
6.85447
7.03316
7.27383
7.5639
7.79298
7.83487
7.73057
7.63378
7.51696
7.43143
7.31908
7.12605
6.7359
6.12182
5.36668
4.73345
4.49034
4.55734
4.77667
4.92663
4.98983
4.99621
5.03401
5.243
5.42681
5.66212
5.92038
6.17467
6.41899
6.63955
6.87471
7.14481
7.47497
7.8604
8.18539
8.33943
8.35244
8.39634
8.40351
8.41396
8.37108
8.16735
7.69214
6.9124
5.90698
4.98221
4.51233
4.49949
4.66263
4.79032
4.83978
4.84504
4.89022
5.11213
5.31984
5.57392
5.85404
6.13343
6.42415
6.73635
7.05637
7.42421
7.86685
8.37282
8.82369
9.13056
9.3159
9.57188
9.76032
9.90736
9.95135
9.71386
9.1165
8.12293
6.79562
5.4721
4.69279
4.54116
4.63381
4.72085
4.75439
4.7562
4.80077
5.0391
5.2672
5.54606
5.87414
6.23695
6.61529
7.01917
7.45
7.95171
8.54591
9.21701
9.84753
10.3753
10.8186
11.3953
11.853
12.214
12.2981
11.9813
11.1995
9.92614
8.19747
6.33388
5.11341
4.7328
4.72905
4.7617
4.76405
4.758
4.80025
5.0437
5.32963
5.6878
6.10193
6.55856
7.0443
7.58376
8.17504
8.86705
9.67753
10.5889
11.4888
12.3482
13.1857
14.2483
15.1031
15.6505
15.7019
15.2097
14.1503
12.5161
10.319
7.77712
5.95322
5.20275
5.03129
4.97865
4.92717
4.89058
4.9197
5.25558
5.62465
6.08741
6.62252
7.21935
7.87051
8.61659
9.44804
10.4217
11.5539
12.8281
14.1421
15.5048
16.9434
18.7189
20.0285
20.5672
20.3939
19.5658
18.107
16.0459
13.3666
10.0986
7.51848
6.19981
5.72751
5.51714
5.36541
5.26215
5.26289
5.84482
6.33215
6.95683
7.68101
8.49805
9.40852
10.4776
11.6776
13.08
14.7
16.5256
18.4686
20.5754
22.8799
25.5887
26.9023
27.0824
26.3403
24.9567
23.0015
20.5209
17.4556
13.6236
10.3187
8.28747
7.23951
6.71725
6.35877
6.11438
6.03265
7.2552
7.91578
8.79655
9.82089
10.9858
12.3048
13.8794
15.6427
17.689
20.0301
22.6535
25.4831
28.5764
31.9075
35.0951
35.5715
34.7122
32.9718
30.8482
28.4003
25.6503
22.4633
18.5313
14.9196
12.2847
10.5047
9.36913
8.57211
8.01269
7.72513
10.6148
11.5147
12.7831
14.2594
15.9435
17.8648
20.1721
22.7261
25.6456
28.9207
32.5228
36.3564
40.3851
44.1385
46.2911
44.7032
42.0741
38.9981
36.0879
33.3113
30.6214
27.7865
24.5007
21.4529
19.0016
16.9857
15.1658
13.5549
12.3326
11.5607
18.5786
19.7167
21.435
23.4262
25.6967
28.2866
31.3858
34.7603
38.5227
42.6028
46.9058
51.2184
55.1068
56.8608
56.3453
51.5608
46.7691
42.3336
38.8265
36.0374
33.8452
31.943
30.1212
28.6787
27.71
26.8343
25.7021
23.9608
21.8817
20.2695
34.4684
35.8383
37.7334
39.8418
42.2354
44.9751
48.235
51.7506
55.5385
59.4261
63.138
66.0573
66.7096
64.7729
60.5495
52.4638
45.8877
40.5494
36.852
34.3863
32.9695
32.3537
32.351
33.054
34.4551
36.0235
37.3488
37.9774
37.7992
36.7328
47.8882
51.3881
54.2125
56.3929
58.3307
60.3964
62.7319
65.1523
67.5499
69.6507
70.8978
70.1217
66.8211
61.381
54.3198
44.8105
37.7509
32.579
29.2176
27.224
26.43
26.6334
27.6919
29.5735
32.468
36.0144
39.455
42.7682
45.9485
49.1169
33.4275
41.5925
43.7511
44.2598
43.7787
42.1665
39.5857
36.2863
32.3987
28.1218
23.435
18.5611
13.4894
10.6224
11.8838
17.6568
23.1754
29.5451
32.2839
32.9407
31.4985
29.0311
26.8587
25.2753
23.774
22.027
20.1346
17.7092
15.7612
14.0289
17.6176
19.1199
19.5451
19.6628
19.6434
19.2673
18.4867
17.3448
15.9055
14.206
12.2777
10.1096
7.77953
7.0047
8.21182
11.0376
13.8598
16.964
18.3162
18.729
18.2159
17.2214
16.1535
15.138
14.209
13.3277
12.5325
11.6561
11.2373
10.9608
15.6257
15.932
15.8527
15.7171
15.5525
15.275
14.8111
14.1196
13.1993
12.0447
10.6585
9.02596
7.1946
6.78982
7.78207
9.73642
11.8592
14.1877
15.3366
15.775
15.5133
14.8695
14.1414
13.4262
12.7681
12.1303
11.5691
10.975
10.8396
10.8329
14.9032
14.6606
14.3741
14.1421
13.9446