/*--------------------------------*- C++ -*----------------------------------*\
| =========                 |                                                 |
| \\      /  F ield         | OpenFOAM: The Open Source CFD Toolbox           |
|  \\    /   O peration     | Version:  5.0                                   |
|   \\  /    A nd           | Web:      www.OpenFOAM.org                      |
|    \\/     M anipulation  |                                                 |
\*---------------------------------------------------------------------------*/
FoamFile
{
    version     2.0;
    format      ascii;
    class       volScalarField;
    location    "600/air";
    object      k;
}
// * * * * * * * * * * * * * * * * * * * * * * * * * * * * * * * * * * * * * //

dimensions      [0 2 -2 0 0 0 0];

internalField   nonuniform List<scalar> 
243000
(
0.127389
0.135308
0.13486
0.131957
0.126804
0.120316
0.11307
0.105615
0.0983044
0.0915026
0.0854848
0.0806147
0.0768255
0.0733562
0.0695976
0.065429
0.0608675
0.0560701
0.0511347
0.0459473
0.0393372
0.033968
0.0335099
0.0423422
0.0478532
0.0540111
0.0589059
0.063554
0.0690025
0.0777526
0.207138
0.223284
0.218795
0.211061
0.200754
0.188897
0.176389
0.163903
0.151772
0.14042
0.130101
0.12107
0.112859
0.105168
0.0982541
0.092036
0.0860997
0.0802732
0.0742018
0.0674751
0.05928
0.0484628
0.0500728
0.0713868
0.0835993
0.0947474
0.105745
0.115868
0.127113
0.142362
0.249362
0.268507
0.263792
0.254884
0.242635
0.228492
0.213497
0.198449
0.183743
0.169943
0.157384
0.146315
0.136026
0.126229
0.117434
0.109633
0.102333
0.0952963
0.0879098
0.0796132
0.0701538
0.0576432
0.0559424
0.0826303
0.100681
0.116318
0.132154
0.145798
0.159737
0.177718
0.278157
0.297944
0.294169
0.285409
0.272788
0.257935
0.241919
0.225591
0.209443
0.19418
0.180243
0.167955
0.15641
0.145208
0.134955
0.125741
0.117109
0.108825
0.100085
0.0902573
0.0795514
0.0657963
0.0595535
0.0889657
0.113102
0.133196
0.153469
0.170132
0.185934
0.204852
0.298536
0.317213
0.3146
0.30661
0.294491
0.279863
0.263738
0.24698
0.230151
0.214091
0.199394
0.186453
0.174204
0.162093
0.150734
0.140321
0.130497
0.121055
0.111056
0.0999072
0.0881082
0.0734577
0.0637168
0.0911551
0.121548
0.14596
0.170289
0.189835
0.207075
0.226051
0.312526
0.329426
0.327949
0.321034
0.309913
0.296071
0.280409
0.263778
0.246792
0.23041
0.215385
0.202193
0.189626
0.17697
0.164779
0.153382
0.142549
0.132083
0.120962
0.108754
0.0960638
0.0808301
0.0688902
0.0908117
0.127382
0.155217
0.182794
0.205375
0.223899
0.242541
0.32148
0.336558
0.336099
0.330404
0.320553
0.307821
0.29298
0.276853
0.26007
0.24371
0.228673
0.215514
0.202898
0.189966
0.177169
0.164992
0.153331
0.141989
0.129878
0.116886
0.103516
0.0879383
0.0745432
0.0897965
0.13101
0.161856
0.191645
0.216859
0.236735
0.255015
0.326357
0.33989
0.340348
0.335917
0.327472
0.31603
0.302235
0.286849
0.27053
0.254446
0.239629
0.226702
0.214228
0.201213
0.188007
0.175239
0.162919
0.15085
0.137869
0.124356
0.110512
0.0947657
0.0803958
0.0891606
0.132988
0.166198
0.197327
0.22504
0.245935
0.263931
0.327663
0.339747
0.341592
0.338446
0.331396
0.321331
0.30873
0.294254
0.278588
0.262977
0.248555
0.235998
0.223796
0.210831
0.197391
0.184211
0.171388
0.158742
0.145017
0.131217
0.117084
0.101287
0.0862375
0.0893313
0.13378
0.168716
0.200303
0.230124
0.252092
0.26988
0.326184
0.337466
0.340587
0.33895
0.333183
0.324395
0.312912
0.299412
0.284557
0.269582
0.255694
0.243603
0.231755
0.218939
0.205424
0.191999
0.178824
0.16573
0.151424
0.137534
0.123258
0.10749
0.0919799
0.0904623
0.133528
0.16992
0.2016
0.23256
0.255472
0.273201
0.322631
0.333554
0.337784
0.337609
0.333373
0.325747
0.315347
0.302759
0.288698
0.274484
0.261233
0.249689
0.238233
0.225657
0.212204
0.198691
0.185313
0.171885
0.157242
0.143392
0.129066
0.113365
0.097593
0.0928867
0.131584
0.170245
0.202131
0.232892
0.25661
0.274347
0.317291
0.328244
0.333576
0.334785
0.332032
0.325773
0.316358
0.304652
0.291365
0.277884
0.265354
0.254389
0.243355
0.231098
0.217834
0.204381
0.190938
0.177284
0.162668
0.148839
0.134515
0.118899
0.102991
0.0958747
0.12897
0.16974
0.201688
0.231205
0.255864
0.273689
0.310448
0.321733
0.328233
0.330745
0.329399
0.324466
0.316202
0.305345
0.292808
0.280028
0.268208
0.257833
0.247242
0.235376
0.222417
0.209159
0.19578
0.181997
0.167609
0.153874
0.139607
0.124084
0.108117
0.0990319
0.126073
0.168342
0.200105
0.227743
0.253215
0.271309
0.30235
0.3142
0.321945
0.325697
0.325697
0.321967
0.314841
0.304976
0.293235
0.28113
0.269935
0.260145
0.250015
0.238606
0.226057
0.213115
0.199918
0.186102
0.172074
0.158515
0.144356
0.128932
0.112923
0.102134
0.122991
0.166203
0.197733
0.224131
0.248867
0.267351
0.293235
0.305848
0.314815
0.319816
0.321051
0.318491
0.312377
0.303528
0.292704
0.281363
0.270752
0.261438
0.251792
0.240906
0.228859
0.21634
0.203424
0.189682
0.176117
0.162805
0.148795
0.133473
0.117401
0.105184
0.119805
0.163467
0.194777
0.22018
0.243124
0.262067
0.283362
0.296839
0.306942
0.313214
0.315585
0.314137
0.308998
0.301075
0.291227
0.280738
0.270816
0.261938
0.252705
0.242396
0.23093
0.218928
0.206373
0.192848
0.179823
0.16681
0.152974
0.137755
0.121623
0.108137
0.116684
0.160255
0.19135
0.215817
0.236852
0.255716
0.273472
0.287344
0.298453
0.305969
0.309397
0.308995
0.304799
0.297776
0.28886
0.279286
0.270103
0.261759
0.252974
0.243199
0.232376
0.220968
0.20884
0.195777
0.183295
0.170601
0.156953
0.141837
0.125602
0.111008
0.113864
0.156644
0.187571
0.211218
0.230919
0.248528
0.264268
0.277921
0.289556
0.298137
0.30258
0.30315
0.299869
0.293754
0.285764
0.27709
0.268653
0.26087
0.252644
0.243462
0.233303
0.222533
0.210891
0.198545
0.186589
0.174235
0.160791
0.145771
0.129405
0.113859
0.112139
0.15234
0.183534
0.206464
0.22503
0.240843
0.255569
0.26915
0.280767
0.289867
0.295253
0.296697
0.294306
0.289091
0.282053
0.274281
0.26659
0.259384
0.251726
0.243248
0.233785
0.223682
0.21259
0.201102
0.189728
0.177758
0.164551
0.149627
0.133115
0.116796
0.11128
0.147646
0.179324
0.201627
0.219281
0.234004
0.24725
0.260896
0.272504
0.281548
0.287547
0.289735
0.288185
0.283864
0.277787
0.270897
0.263965
0.257371
0.250329
0.242565
0.233865
0.224449
0.214022
0.20349
0.192757
0.181225
0.168295
0.153487
0.136844
0.119825
0.111248
0.142871
0.175019
0.196764
0.213676
0.227697
0.239264
0.253056
0.2647
0.27371
0.279797
0.282371
0.281578
0.278115
0.272978
0.266981
0.260812
0.254861
0.248475
0.241451
0.233524
0.224868
0.215431
0.205815
0.195744
0.184697
0.172097
0.157455
0.140711
0.123075
0.11202
0.138379
0.170732
0.191942
0.20822
0.221767
0.2316
0.245582
0.257285
0.266279
0.272475
0.275207
0.274817
0.271972
0.267709
0.262595
0.257198
0.25191
0.246206
0.239943
0.232849
0.225194
0.21691
0.208175
0.198775
0.188252
0.176046
0.161629
0.14482
0.126651
0.113475
0.13448
0.166607
0.18726
0.202968
0.216167
0.224299
0.238461
0.250204
0.259191
0.265498
0.268501
0.26856
0.266364
0.262847
0.258529
0.253865
0.249186
0.244183
0.238715
0.232604
0.225919
0.218624
0.21072
0.201997
0.192037
0.180292
0.166165
0.149346
0.130675
0.115658
0.131544
0.162891
0.182895
0.198042
0.210938
0.217428
0.23169
0.243407
0.252416
0.258884
0.262232
0.262758
0.26125
0.258519
0.25502
0.251132
0.247134
0.242853
0.238181
0.232978
0.227216
0.220839
0.213753
0.205726
0.196366
0.185134
0.17137
0.154609
0.135419
0.118807
0.129888
0.159857
0.17911
0.193679
0.206229
0.211092
0.225327
0.236981
0.246038
0.252651
0.256394
0.257404
0.256642
0.25475
0.252116
0.249069
0.245852
0.242405
0.238615
0.234375
0.229595
0.224178
0.217954
0.210667
0.201938
0.191234
0.177852
0.161149
0.14139
0.12314
0.130091
0.157738
0.176079
0.190021
0.202154
0.205674
0.219685
0.231153
0.240192
0.246935
0.251126
0.252688
0.252765
0.251813
0.250191
0.24819
0.246016
0.243664
0.241045
0.238039
0.234477
0.230181
0.22491
0.218401
0.210285
0.200031
0.186902
0.170137
0.149594
0.129379
0.132531
0.157367
0.174367
0.187474
0.199032
0.201971
0.215572
0.226706
0.235659
0.242526
0.247339
0.249696
0.250902
0.251272
0.251128
0.250724
0.250234
0.249654
0.248846
0.247625
0.245677
0.242688
0.2384
0.23254
0.224779
0.214641
0.201431
0.184254
0.162613
0.139909
0.139168
0.160108
0.175494
0.187482
0.197997
0.203401
0.216417
0.227365
0.236633
0.244199
0.250333
0.254424
0.257779
0.260598
0.263137
0.265699
0.268393
0.270977
0.273066
0.274247
0.274077
0.272184
0.268357
0.262424
0.254155
0.243248
0.229115
0.210922
0.188106
0.162985
0.157562
0.172481
0.184865
0.194572
0.20306
0.236835
0.24969
0.261371
0.272069
0.281633
0.290381
0.298279
0.305966
0.312989
0.319853
0.327459
0.335444
0.342467
0.347853
0.350965
0.351505
0.34926
0.344382
0.336973
0.326695
0.313822
0.298109
0.279066
0.256739
0.232209
0.221361
0.227611
0.234095
0.238704
0.242692
0.458009
0.467493
0.476595
0.4851
0.491577
0.495562
0.501693
0.508853
0.513583
0.51855
0.527672
0.537667
0.543874
0.546829
0.546276
0.543518
0.538137
0.53161
0.524198
0.51409
0.503721
0.493654
0.483534
0.472994
0.464057
0.461913
0.464962
0.467343
0.467634
0.467207
0.188863
0.209872
0.213798
0.211273
0.203975
0.193554
0.181245
0.168058
0.154574
0.141457
0.129181
0.118423
0.108673
0.0987233
0.0882168
0.0774429
0.0663589
0.055808
0.046001
0.0370147
0.0353326
0.0334864
0.0360639
0.0481232
0.0560363
0.0664873
0.0700375
0.0728344
0.0799741
0.096092
0.317559
0.350444
0.348344
0.334009
0.313158
0.289405
0.264711
0.240244
0.216534
0.194201
0.173335
0.154155
0.135129
0.118475
0.106582
0.098537
0.0917856
0.0862095
0.0802218
0.0697129
0.0575092
0.0479931
0.0591222
0.0877911
0.120484
0.156686
0.170569
0.165275
0.165629
0.178926
0.392752
0.43267
0.432936
0.418531
0.395984
0.369195
0.340434
0.311122
0.282103
0.254422
0.228359
0.203919
0.179196
0.157693
0.142772
0.133131
0.125534
0.119601
0.113064
0.100821
0.0822322
0.064354
0.0723603
0.109944
0.157241
0.209071
0.235311
0.234813
0.235105
0.248428
0.44496
0.483845
0.485604
0.472796
0.451507
0.425208
0.395933
0.365082
0.333796
0.303454
0.274571
0.247191
0.219148
0.194498
0.176999
0.165339
0.156358
0.149601
0.142288
0.129029
0.105916
0.0814649
0.0856935
0.126095
0.182692
0.246629
0.284246
0.290373
0.292562
0.307543
0.482584
0.516586
0.518942
0.508151
0.489212
0.4649
0.436782
0.406145
0.374265
0.342848
0.312743
0.28401
0.25423
0.227584
0.20794
0.194275
0.183881
0.176365
0.168745
0.154927
0.128905
0.0999147
0.100761
0.140532
0.20186
0.273608
0.3219
0.335173
0.340379
0.356835
0.50944
0.537036
0.539434
0.530741
0.514569
0.492893
0.466738
0.437252
0.40582
0.374386
0.344128
0.31511
0.284688
0.256836
0.235434
0.219961
0.208311
0.200301
0.193269
0.178775
0.150989
0.119334
0.117202
0.15369
0.217509
0.293823
0.350096
0.370688
0.379474
0.397003
0.52739
0.548723
0.550976
0.544335
0.531031
0.512219
0.488366
0.460637
0.430258
0.399517
0.36984
0.341281
0.310974
0.282503
0.259651
0.242653
0.229979
0.22179
0.215699
0.200649
0.171929
0.139051
0.134058
0.165833
0.230316
0.30914
0.370014
0.397777
0.410358
0.428661
0.537682
0.553911
0.556095
0.551399
0.540888
0.524933
0.503603
0.477792
0.448874
0.419326
0.390744
0.363139
0.333478
0.304799
0.280826
0.262618
0.249212
0.241172
0.236047
0.220608
0.191567
0.158356
0.150581
0.177094
0.240623
0.320026
0.384281
0.417222
0.433491
0.452451
0.541493
0.552956
0.556475
0.553859
0.545754
0.532425
0.513543
0.489804
0.462614
0.434626
0.407519
0.381199
0.352527
0.323906
0.299183
0.280103
0.26633
0.258826
0.254426
0.23873
0.20983
0.176697
0.166154
0.187392
0.248699
0.327348
0.393489
0.429751
0.44936
0.469068
0.540207
0.549281
0.553591
0.553581
0.547593
0.536364
0.519426
0.497435
0.472173
0.446035
0.420685
0.395904
0.368368
0.340063
0.31496
0.295384
0.281588
0.275061
0.270949
0.255135
0.226684
0.193741
0.180399
0.196684
0.254729
0.331825
0.398284
0.437661
0.458962
0.479212
0.535947
0.543122
0.548184
0.550148
0.547146
0.537796
0.522522
0.502066
0.47826
0.454111
0.43067
0.407584
0.381275
0.353531
0.32842
0.308737
0.295242
0.289853
0.28572
0.269939
0.242139
0.209384
0.193078
0.204946
0.258844
0.334015
0.400001
0.441425
0.464155
0.484858
0.528146
0.534752
0.540795
0.544492
0.543884
0.53717
0.5235
0.504366
0.481952
0.459366
0.437933
0.416547
0.39155
0.364611
0.339854
0.320461
0.307602
0.303372
0.298912
0.283288
0.2562
0.223555
0.204325
0.212008
0.261301
0.334331
0.39936
0.4422
0.465896
0.486875
0.517409
0.524563
0.531844
0.53717
0.538684
0.534087
0.522534
0.504911
0.483724
0.462581
0.442896
0.423163
0.399526
0.373627
0.349584
0.33088
0.319069
0.315871
0.310936
0.295411
0.268931
0.236264
0.214504
0.217904
0.262292
0.332385
0.395486
0.439314
0.464298
0.485632
0.504534
0.512981
0.521697
0.528608
0.531919
0.529322
0.519493
0.503665
0.484065
0.464221
0.445975
0.42783
0.405592
0.380951
0.357973
0.340346
0.330125
0.327631
0.322139
0.306565
0.280506
0.247806
0.22338
0.222867
0.261632
0.328329
0.389195
0.433193
0.458902
0.48036
0.490309
0.500443
0.510688
0.519114
0.523964
0.523222
0.514824
0.500738
0.482959
0.464686
0.447825
0.431007
0.410206
0.387032
0.365454
0.349264
0.340881
0.338906
0.332851
0.317114
0.291227
0.258384
0.231443
0.226499
0.259034
0.322475
0.381206
0.424533
0.450738
0.472258
0.475519
0.48743
0.499158
0.508986
0.51519
0.516107
0.509214
0.496553
0.480682
0.464259
0.448874
0.433262
0.41391
0.3924
0.372547
0.358167
0.351616
0.349971
0.343419
0.327465
0.301502
0.268312
0.239084
0.229112
0.255406
0.315408
0.372149
0.414172
0.441007
0.462332
0.461142
0.474595
0.487523
0.49856
0.505987
0.508317
0.503016
0.491798
0.477796
0.463288
0.449624
0.435211
0.417358
0.3977
0.379876
0.367819
0.36275
0.361129
0.354219
0.338069
0.311832
0.27797
0.24643
0.23114
0.251113
0.307657
0.362569
0.403009
0.429901
0.451219
0.446759
0.46238
0.476424
0.488319
0.496804
0.50036
0.496718
0.487121
0.47502
0.462756
0.450678
0.437471
0.421318
0.40371
0.388237
0.378534
0.374671
0.37281
0.365684
0.34942
0.322782
0.287824
0.253514
0.233154
0.246869
0.299663
0.352861
0.391578
0.418231
0.439841
0.432733
0.450472
0.466186
0.479071
0.488338
0.49296
0.491016
0.483241
0.473467
0.463338
0.452658
0.441009
0.426739
0.411414
0.398686
0.390912
0.387827
0.385572
0.378304
0.362071
0.335011
0.298664
0.260969
0.23579
0.243306
0.291959
0.343273
0.380256
0.406588
0.428345
0.419292
0.439269
0.456865
0.471416
0.481711
0.487185
0.486905
0.481451
0.474078
0.465712
0.45693
0.447004
0.434842
0.422179
0.411933
0.405568
0.402795
0.400047
0.392683
0.376668
0.349293
0.311452
0.270172
0.239835
0.241234
0.285174
0.334032
0.369434
0.395462
0.417321
0.407057
0.429352
0.449
0.465412
0.477507
0.484519
0.485916
0.482852
0.47781
0.471736
0.465016
0.457042
0.447309
0.437032
0.428758
0.423332
0.4204
0.41718
0.409724
0.394063
0.366625
0.327321
0.282416
0.246241
0.242116
0.279862
0.325703
0.359641
0.385358
0.407253
0.39638
0.420964
0.442657
0.46112
0.475326
0.484436
0.488894
0.48853
0.486206
0.482724
0.478346
0.472529
0.465098
0.456965
0.450327
0.445549
0.442355
0.438701
0.431088
0.415705
0.388542
0.347831
0.29894
0.256342
0.24543
0.277079
0.319202
0.351734
0.377039
0.398842
0.387957
0.414566
0.438372
0.458945
0.475593
0.488673
0.49606
0.498888
0.499718
0.499229
0.497648
0.494441
0.489554
0.483761
0.478852
0.475062
0.472033
0.46807
0.460135
0.444695
0.417657
0.375607
0.322069
0.271748
0.252715
0.278305
0.316754
0.347501
0.371948
0.393295
0.382172
0.410893
0.436794
0.460292
0.481521
0.498331
0.508885
0.515479
0.520285
0.523541
0.525364
0.525764
0.524417
0.522038
0.52008
0.518405
0.516424
0.512454
0.503856
0.487377
0.459276
0.415443
0.356131
0.295528
0.265938
0.283714
0.31941
0.348933
0.372503
0.39305
0.380377
0.411868
0.441769
0.469794
0.494995
0.51618
0.530964
0.542942
0.553518
0.561938
0.568151
0.573841
0.578599
0.582312
0.586345
0.589252
0.589887
0.586231
0.575987
0.556289
0.524057
0.475705
0.40956
0.334562
0.288316
0.297377
0.328419
0.356391
0.3789
0.398645
0.390806
0.425901
0.459659
0.492352
0.522669
0.550364
0.572416
0.591918
0.610247
0.626784
0.641729
0.655935
0.671306
0.686294
0.701686
0.712994
0.717573
0.713602
0.699144
0.671934
0.6302
0.571933
0.495584
0.402986
0.33218
0.32905
0.353318
0.378067
0.398697
0.416842
0.425842
0.465577
0.505161
0.545439
0.5842
0.620869
0.653076
0.684702
0.715734
0.745591
0.775
0.80543
0.837307
0.869018
0.899546
0.919564
0.925671
0.916712
0.892373
0.85171
0.795076
0.722604
0.633623
0.524494
0.428361
0.402901
0.416879
0.434747
0.450235
0.464608
0.527827
0.573653
0.622491
0.673128
0.723515
0.773123
0.820521
0.869033
0.916893
0.963508
1.00999
1.05786
1.10523
1.14664
1.17746
1.1885
1.17975
1.15266
1.11053
1.05718
0.993588
0.917336
0.82773
0.723084
0.624775
0.579797
0.57892
0.582806
0.584534
0.587285
0.791718
0.841561
0.896741
0.954109
1.01161
1.06737
1.12203
1.17699
1.22915
1.27814
1.32322
1.36111
1.38896
1.4003
1.38724
1.35265
1.30863
1.25898
1.20722
1.15493
1.10358
1.05182
0.99553
0.937403
0.899554
0.885562
0.891519
0.89283
0.882145
0.86631
1.13983
1.1901
1.23818
1.28305
1.323
1.35719
1.38667
1.41104
1.42888
1.44202
1.44805
1.4384
1.413
1.37559
1.32289
1.26284
1.20581
1.15341
1.10741
1.06823
1.03809
1.01676
1.00181
0.99408
1.00932
1.04871
1.08575
1.11708
1.14254
1.16647
0.240245
0.271023
0.275476
0.273026
0.264485
0.251595
0.235845
0.218469
0.200111
0.181467
0.162809
0.144895
0.126898
0.109095
0.0933758
0.0809755
0.0708499
0.0678302
0.0701248
0.0706043
0.0519245
0.0426357
0.0518616
0.0666156
0.0788795
0.0966937
0.106059
0.107916
0.111907
0.120385
0.403305
0.447393
0.447974
0.432128
0.407365
0.37837
0.347588
0.316385
0.285164
0.254405
0.223876
0.193067
0.161053
0.139652
0.133522
0.135813
0.137381
0.141819
0.148671
0.152253
0.119917
0.0945397
0.114808
0.152418
0.18962
0.218442
0.228441
0.226559
0.223174
0.229073
0.501565
0.549176
0.551285
0.53516
0.508829
0.4771
0.442426
0.40621
0.369037
0.331665
0.294067
0.255237
0.214312
0.188913
0.183562
0.187391
0.189217
0.192181
0.200086
0.204735
0.174751
0.147987
0.16855
0.212125
0.259566
0.297654
0.314213
0.315143
0.312502
0.321067
0.569991
0.613105
0.615086
0.600103
0.575096
0.544274
0.509591
0.472203
0.432794
0.392371
0.351155
0.307918
0.262206
0.234715
0.228518
0.230892
0.230835
0.231275
0.238542
0.243523
0.221179
0.198057
0.216577
0.26097
0.314128
0.35917
0.38115
0.385206
0.384218
0.395376
0.619089
0.654025
0.655552
0.642283
0.619732
0.591267
0.558191
0.521391
0.481618
0.440161
0.397457
0.352287
0.304694
0.276334
0.26848
0.268145
0.265539
0.263744
0.270084
0.275552
0.261276
0.242645
0.258457
0.302402
0.357986
0.408223
0.434508
0.441702
0.442852
0.455717
0.653669
0.679689
0.680538
0.669303
0.649755
0.624279
0.593551
0.558219
0.519152
0.477953
0.43525
0.389905
0.342493
0.313931
0.303947
0.300377
0.295194
0.292141
0.298412
0.303923
0.295255
0.281226
0.294949
0.33706
0.392691
0.446453
0.476372
0.48692
0.490447
0.504178
0.676001
0.694235
0.694674
0.685665
0.669317
0.647048
0.61897
0.585583
0.547917
0.507881
0.466281
0.422078
0.37631
0.347835
0.335416
0.328473
0.321065
0.318441
0.323669
0.328654
0.323669
0.313764
0.325855
0.365111
0.419496
0.474539
0.508045
0.522225
0.528201
0.542118
0.687962
0.700544
0.701042
0.694283
0.681088
0.661985
0.636611
0.605441
0.569667
0.531453
0.491812
0.449754
0.406591
0.378263
0.363283
0.353118
0.344099
0.342353
0.346082
0.350001
0.347063
0.340539
0.350944
0.386628
0.438793
0.493205
0.530623
0.548666
0.557047
0.570786
0.690896
0.699702
0.701951
0.697498
0.686981
0.670704
0.64793
0.619157
0.585649
0.54979
0.512766
0.473635
0.433565
0.405376
0.387868
0.374872
0.365114
0.363826
0.365907
0.368291
0.366034
0.361662
0.370482
0.401754
0.452735
0.506036
0.545225
0.56713
0.577829
0.591276
0.688337
0.695323
0.698813
0.697558
0.689337
0.675335
0.654619
0.627757
0.596778
0.563757
0.529854
0.494209
0.457383
0.429326
0.409468
0.394246
0.384843
0.382978
0.383469
0.383926
0.381271
0.377716
0.385017
0.412582
0.462251
0.514466
0.554325
0.578442
0.591305
0.604619
0.682052
0.687682
0.692389
0.693673
0.689107
0.677053
0.658125
0.63306
0.604097
0.574176
0.543667
0.511845
0.478195
0.450242
0.428467
0.41174
0.403117
0.400155
0.39895
0.397244
0.393334
0.389362
0.394818
0.419843
0.467786
0.519115
0.558727
0.584519
0.5983
0.611773
0.671549
0.677351
0.68354
0.68707
0.685332
0.676418
0.659247
0.635768
0.608844
0.581823
0.554805
0.526837
0.496168
0.468392
0.445297
0.427897
0.419993
0.415639
0.412498
0.408525
0.402737
0.397475
0.400654
0.423703
0.469924
0.520623
0.56016
0.586654
0.60114
0.614727
0.658217
0.665084
0.67292
0.678493
0.679385
0.67292
0.658204
0.636551
0.611586
0.587286
0.563795
0.539516
0.511542
0.484159
0.460476
0.443351
0.435645
0.429778
0.424531
0.418021
0.409904
0.402762
0.403706
0.424833
0.468207
0.517873
0.557501
0.584775
0.600269
0.614374
0.643084
0.651546
0.661105
0.66862
0.671673
0.667462
0.654844
0.635594
0.612857
0.591363
0.57117
0.550268
0.524718
0.498063
0.474616
0.458722
0.450304
0.443003
0.435638
0.426426
0.415523
0.405929
0.404591
0.422142
0.462296
0.511045
0.550798
0.578808
0.594572
0.609492
0.627039
0.637332
0.648592
0.657882
0.662725
0.660678
0.64979
0.633042
0.6132
0.594574
0.577481
0.559588
0.536282
0.510794
0.488476
0.474008
0.464552
0.455797
0.446371
0.43437
0.420258
0.407888
0.40261
0.416473
0.453549
0.501437
0.541345
0.57
0.585966
0.601874
0.61099
0.623048
0.635861
0.64672
0.653078
0.653088
0.644079
0.629738
0.613245
0.597463
0.583358
0.568137
0.547027
0.523235
0.503036
0.489471
0.478899
0.46869
0.457296
0.442463
0.424949
0.408933
0.399856
0.408997
0.443126
0.490106
0.530168
0.559305
0.576127
0.592462
0.59543
0.609436
0.623471
0.635672
0.643428
0.64526
0.638408
0.62665
0.613683
0.600733
0.589581
0.576759
0.557975
0.536497
0.518979
0.505431
0.493912
0.482297
0.469047
0.45146
0.430343
0.410025
0.397089
0.401257
0.431967
0.477889
0.518062
0.54761
0.56535
0.582115
0.580558
0.596515
0.612207
0.625494
0.634591
0.638071
0.633738
0.625222
0.615242
0.605523
0.597102
0.586539
0.570395
0.551946
0.536606
0.52271
0.510342
0.4974
0.482416
0.46226
0.43734
0.411923
0.394954
0.394004
0.420829
0.465457
0.505668
0.535497
0.554254
0.571858
0.566563
0.584551
0.602157
0.617216
0.627684
0.632711
0.631253
0.626121
0.619236
0.612834
0.60717
0.599003
0.585854
0.570483
0.556399
0.542363
0.529244
0.51509
0.498485
0.476
0.447145
0.41588
0.39381
0.388066
0.41043
0.453411
0.493581
0.52348
0.543362
0.561749
0.553558
0.574115
0.593949
0.611053
0.623541
0.63079
0.632546
0.630545
0.62713
0.624135
0.621422
0.615935
0.605827
0.59257
0.579724
0.565872
0.552195
0.537016
0.518887
0.494298
0.461559
0.424334
0.394274
0.384
0.401565
0.44249
0.482218
0.512007
0.533
0.552173
0.542025
0.565289
0.587419
0.606766
0.621621
0.632487
0.638142
0.639733
0.640124
0.64089
0.641365
0.638499
0.630918
0.619804
0.608609
0.595518
0.581727
0.565826
0.546267
0.519616
0.483243
0.43922
0.39992
0.383046
0.395782
0.433644
0.472191
0.501846
0.52376
0.543774
0.532174
0.55842
0.582962
0.604735
0.623006
0.639045
0.648719
0.654354
0.659016
0.663901
0.66803
0.668097
0.663453
0.655121
0.646369
0.635038
0.622105
0.605948
0.585085
0.556227
0.516323
0.464652
0.414017
0.387138
0.396307
0.429004
0.465262
0.494584
0.517176
0.537705
0.524841
0.553975
0.581093
0.606605
0.631009
0.65193
0.665953
0.676276
0.685881
0.695508
0.703935
0.708089
0.707454
0.703341
0.698751
0.690923
0.68033
0.66471
0.642658
0.611287
0.566152
0.506181
0.441283
0.398963
0.401831
0.430958
0.465395
0.493732
0.516251
0.53639
0.520921
0.552976
0.585331
0.617459
0.647318
0.67345
0.692739
0.708795
0.724483
0.740019
0.754099
0.764117
0.769983
0.772772
0.775553
0.773795
0.767426
0.75318
0.729612
0.692466
0.640094
0.570643
0.490011
0.425952
0.41712
0.439292
0.471202
0.498509
0.520605
0.540343
0.525398
0.56362
0.602232
0.640229
0.676506
0.708664
0.734884
0.758474
0.78223
0.805808
0.828014
0.846913
0.862998
0.877026
0.891639
0.898443
0.897201
0.880657
0.849892
0.80458
0.74369
0.66506
0.570238
0.481537
0.450698
0.46364
0.489483
0.514106
0.534919
0.553626
0.549524
0.593889
0.639314
0.684809
0.728348
0.768797
0.804707
0.838796
0.873693
0.908616
0.942598
0.974435
1.00511
1.03433
1.0625
1.07622
1.06769
1.03996
0.998426
0.943789
0.875593
0.791339
0.689142
0.583123
0.525162
0.520681
0.53656
0.554926
0.571835
0.588261
0.614148
0.665438
0.718875
0.773158
0.826484
0.878126
0.927111
0.975249
1.02444
1.07352
1.12183
1.16859
1.21416
1.25483
1.2846
1.27951
1.25128
1.20661
1.15281
1.09124
1.02147
0.940464
0.844207
0.743094
0.676072
0.64597
0.64637
0.651566
0.658602
0.668319
0.774994
0.829664
0.890391
0.953184
1.01624
1.07874
1.14035
1.20146
1.26229
1.32146
1.37826
1.43079
1.47531
1.49948
1.49273
1.45226
1.39637
1.33267
1.26918
1.20713
1.1459
1.08218
1.01086
0.942443
0.899332
0.880344
0.87119
0.861456
0.853062
0.848688
1.09925
1.15109
1.20859
1.26837
1.32883
1.38828
1.44716
1.50462
1.55864
1.60813
1.65081
1.67665
1.67631
1.64707
1.59134
1.50943
1.4265
1.34867
1.2824
1.22807
1.18549
1.15123
1.12029
1.10139
1.10792
1.1322
1.1607
1.17912
1.1823
1.17892
1.37347
1.43757
1.49406
1.54225
1.58374
1.62109
1.65497
1.6841
1.70643
1.72175
1.72257
1.69565
1.64296
1.56912
1.47768
1.37287
1.27941
1.20139
1.14134
1.0992
1.07492
1.06607
1.06926
1.08682
1.1287
1.18941
1.24945
1.30506
1.35665
1.4072
0.288394
0.326434
0.32961
0.326196
0.316563
0.301807
0.283345
0.262511
0.23991
0.216297
0.191492
0.16617
0.139299
0.116086
0.103643
0.105771
0.119664
0.145557
0.157958
0.162461
0.155392
0.133269
0.124746
0.136967
0.152486
0.159395
0.160941
0.156348
0.153727
0.153303
0.484433
0.53559
0.534665
0.517384
0.489601
0.456572
0.421011
0.384346
0.34669
0.308282
0.267838
0.224258
0.178815
0.161913
0.178363
0.210364
0.241886
0.291792
0.318634
0.330603
0.324011
0.29512
0.284525
0.297948
0.311432
0.31545
0.314318
0.302454
0.290906
0.285651
0.605122
0.654873
0.65521
0.63702
0.6074
0.571693
0.532419
0.490721
0.446691
0.400503
0.350825
0.295806
0.238298
0.222569
0.247703
0.284925
0.318609
0.371574
0.406145
0.425322
0.424648
0.400739
0.393718
0.408931
0.42356
0.428984
0.428387
0.414908
0.402043
0.398965
0.68797
0.729249
0.729445
0.712
0.683603
0.649007
0.610067
0.567441
0.521155
0.471391
0.416936
0.355533
0.292075
0.27865
0.306676
0.342358
0.373371
0.423402
0.461339
0.485669
0.489934
0.473902
0.47244
0.490369
0.507213
0.51474
0.515376
0.502245
0.488944
0.488216
0.747016
0.777919
0.777104
0.761059
0.73518
0.703172
0.666098
0.624245
0.577644
0.526594
0.470017
0.405608
0.340761
0.330211
0.357825
0.388959
0.415476
0.459766
0.497524
0.524607
0.532803
0.525207
0.529225
0.550222
0.570523
0.580775
0.583269
0.571743
0.55857
0.55952
0.787716
0.809053
0.807112
0.79301
0.770341
0.741588
0.707054
0.666796
0.620956
0.570055
0.513253
0.448512
0.385771
0.377923
0.402802
0.4279
0.449145
0.486646
0.521707
0.549995
0.562053
0.561727
0.569731
0.592819
0.617141
0.630787
0.635716
0.626884
0.614346
0.616245
0.813747
0.827121
0.824735
0.813025
0.793813
0.768504
0.736771
0.698559
0.654203
0.604515
0.549057
0.486252
0.428287
0.422331
0.442707
0.461126
0.477384
0.507907
0.539948
0.56793
0.582769
0.587518
0.598781
0.622028
0.64911
0.666984
0.674827
0.669624
0.658224
0.65966
0.828269
0.835544
0.833548
0.824443
0.808611
0.786629
0.757724
0.721834
0.679532
0.631961
0.579212
0.520309
0.468882
0.463672
0.478299
0.489984
0.502386
0.525402
0.5532
0.579581
0.596071
0.604233
0.617637
0.641139
0.669052
0.691118
0.70217
0.701232
0.691524
0.691858
0.83242
0.836879
0.836125
0.829532
0.816725
0.797791
0.771614
0.738274
0.698546
0.65393
0.605076
0.551718
0.507605
0.501983
0.510155
0.515467
0.524236
0.539875
0.562422
0.586031
0.603131
0.613351
0.62773
0.651238
0.680036
0.704821
0.719304
0.722615
0.715297
0.71474
0.829698
0.833089
0.834488
0.83097
0.820586
0.804088
0.780124
0.7491
0.712523
0.671652
0.627716
0.581101
0.544193
0.53719
0.538794
0.538449
0.542896
0.55195
0.568712
0.588963
0.605469
0.616488
0.631508
0.655578
0.685064
0.710877
0.727897
0.734822
0.730461
0.729809
0.821853
0.82533
0.82868
0.828441
0.821481
0.807059
0.785101
0.756319
0.72272
0.686181
0.64797
0.60878
0.578312
0.569212
0.564778
0.559874
0.559181
0.5622
0.572973
0.589252
0.603235
0.614341
0.629715
0.654759
0.685624
0.712539
0.730685
0.739553
0.738017
0.738246
0.810028
0.814544
0.819984
0.822603
0.81915
0.807592
0.787365
0.760863
0.730379
0.698536
0.666492
0.634869
0.609964
0.598183
0.588581
0.580096
0.573709
0.571105
0.575986
0.586634
0.598116
0.608016
0.622164
0.646536
0.678648
0.707717
0.727442
0.738554
0.739298
0.741079
0.795406
0.801675
0.8093
0.814405
0.813997
0.805403
0.787687
0.763458
0.736436
0.709521
0.683789
0.659396
0.638836
0.624425
0.610703
0.598775
0.587194
0.579198
0.578398
0.583269
0.59095
0.598993
0.611707
0.634854
0.66697
0.697741
0.719243
0.732583
0.735722
0.739481
0.779052
0.787511
0.797318
0.804712
0.806899
0.800712
0.785891
0.764753
0.741542
0.719788
0.700288
0.682413
0.665077
0.648431
0.631819
0.615985
0.600128
0.587285
0.580779
0.579876
0.582802
0.588155
0.599136
0.620897
0.652798
0.684924
0.708042
0.723137
0.72842
0.734386
0.761871
0.772711
0.784636
0.794156
0.798488
0.794924
0.782695
0.765427
0.746277
0.729879
0.71638
0.704095
0.689076
0.670827
0.652674
0.632598
0.613048
0.595919
0.583947
0.577194
0.574749
0.576443
0.585149
0.60537
0.636883
0.670157
0.69474
0.711341
0.718525
0.726803
0.74471
0.75788
0.771811
0.783284
0.78949
0.788611
0.779111
0.766262
0.751584
0.740312
0.732486
0.724825
0.711518
0.692523
0.673101
0.649424
0.626719
0.605756
0.588696
0.575969
0.567753
0.564869
0.570576
0.589014
0.619975
0.654198
0.680158
0.698102
0.707201
0.717669
0.728186
0.74367
0.759464
0.772755
0.780785
0.782477
0.776244
0.767874
0.758144
0.751715
0.749161
0.745239
0.733428
0.714845
0.693737
0.667416
0.642071
0.617658
0.595856
0.576474
0.562402
0.554443
0.556248
0.572579
0.602779
0.637729
0.66501
0.684211
0.695171
0.707867
0.712611
0.730294
0.748205
0.763463
0.773346
0.777571
0.775661
0.771206
0.766166
0.7648
0.767219
0.766347
0.756189
0.738224
0.715892
0.687792
0.660292
0.632758
0.606618
0.581278
0.560146
0.545861
0.543081
0.556795
0.586029
0.621293
0.649897
0.670336
0.68317
0.698151
0.698133
0.718076
0.738428
0.755907
0.768277
0.775308
0.777627
0.777152
0.777078
0.780757
0.78768
0.78962
0.78136
0.763599
0.741118
0.712125
0.682966
0.652637
0.622475
0.591212
0.561209
0.540219
0.532108
0.542553
0.570374
0.605572
0.635231
0.656978
0.671862
0.688621
0.68493
0.707606
0.730307
0.750163
0.765256
0.77575
0.783234
0.787391
0.79242
0.801016
0.812076
0.816719
0.809815
0.792911
0.771458
0.742517