/*--------------------------------*- C++ -*----------------------------------*\
| =========                 |                                                 |
| \\      /  F ield         | OpenFOAM: The Open Source CFD Toolbox           |
|  \\    /   O peration     | Version:  5.0                                   |
|   \\  /    A nd           | Web:      www.OpenFOAM.org                      |
|    \\/     M anipulation  |                                                 |
\*---------------------------------------------------------------------------*/
FoamFile
{
    version     2.0;
    format      ascii;
    class       volScalarField;
    location    "600/air";
    object      nut;
}
// * * * * * * * * * * * * * * * * * * * * * * * * * * * * * * * * * * * * * //

dimensions      [0 2 -1 0 0 0 0];

internalField   nonuniform List<scalar> 
243000
(
0.000188388
0.000186914
0.000179839
0.000171629
0.000162548
0.000153237
0.000144065
0.00013535
0.000127278
0.000120051
0.000113818
0.000108796
0.000104948
0.00010175
9.87334e-05
9.576e-05
9.27722e-05
8.98047e-05
8.68541e-05
8.37461e-05
7.91811e-05
0.000329797
0.000351492
8.78342e-05
9.64421e-05
0.000106054
0.000114694
0.00012351
0.000133568
0.000147311
0.000851296
0.000884305
0.000875689
0.000860246
0.000839123
0.000814119
0.00078683
0.000758577
0.000730074
0.000702339
0.000676138
0.000652343
0.000629959
0.000608151
0.000587744
0.00056875
0.000550078
0.000531225
0.000511032
0.000487802
0.000458122
0.000416649
0.000417138
0.000497863
0.000539911
0.00057522
0.00060778
0.000637004
0.000667319
0.00070577
0.000933738
0.000969729
0.000961498
0.000945353
0.000922559
0.000895454
0.000865733
0.000834809
0.000803426
0.000772785
0.000743796
0.000717263
0.000691701
0.000666315
0.000642538
0.000620671
0.000599581
0.000578675
0.000556159
0.000529739
0.000498161
0.000452537
0.000439793
0.000534756
0.000591973
0.000636746
0.000678622
0.000714016
0.000747766
0.000788737
0.000985974
0.00102146
0.0010153
0.00100034
0.000978199
0.000951399
0.000921572
0.000890096
0.000857815
0.000826104
0.000796036
0.000768522
0.000741742
0.000714648
0.000688787
0.000664676
0.000641375
0.000618365
0.000593452
0.000564013
0.000530341
0.000483162
0.000454319
0.000553771
0.000626765
0.000680815
0.000730709
0.000770864
0.00080645
0.00084665
0.00102132
0.0010539
0.00104991
0.00103678
0.00101633
0.000990984
0.000962208
0.000931325
0.000899223
0.000867435
0.00083727
0.000809738
0.000782775
0.000755027
0.00072792
0.000702148
0.000677046
0.000652213
0.000625202
0.000593411
0.000558024
0.000510291
0.000471831
0.000558405
0.000649113
0.000712068
0.000769163
0.000813902
0.000850772
0.000889159
0.00104486
0.00107392
0.00107188
0.00106082
0.00104255
0.00101922
0.000992105
0.000962441
0.000931144
0.000899877
0.000870185
0.000843201
0.00081665
0.000788877
0.000761058
0.000734102
0.000707645
0.000681331
0.000652583
0.000619158
0.000582572
0.000535
0.000491292
0.000556069
0.000663712
0.000733812
0.000796335
0.000846217
0.00088439
0.000920772
0.00105961
0.00108541
0.00108503
0.00107612
0.00106022
0.00103919
0.00101404
0.000985961
0.00095583
0.00092546
0.0008966
0.000870502
0.000844702
0.000817294
0.000789138
0.000761392
0.000733959
0.000706487
0.000676309
0.000641923
0.000604653
0.000557722
0.000511248
0.000552189
0.00067228
0.000748843
0.000815009
0.000869179
0.000909105
0.00094389
0.00106753
0.0010906
0.00109177
0.00108498
0.00107153
0.00105288
0.00102987
0.00100355
0.00097482
0.000945591
0.000917794
0.000892773
0.000867921
0.000841104
0.000812906
0.000784698
0.000756605
0.000728276
0.000696907
0.000662147
0.000624658
0.000578673
0.000530947
0.000550088
0.000676602
0.000758428
0.000826729
0.000885218
0.000926401
0.000960041
0.00106955
0.00109022
0.00109364
0.00108897
0.00107786
0.00106161
0.00104082
0.00101636
0.000989182
0.00096127
0.000934692
0.000910852
0.00088705
0.000860942
0.000832942
0.000804559
0.000776074
0.00074717
0.000714828
0.000680173
0.000642862
0.000597993
0.000549811
0.000551114
0.000677954
0.000763891
0.000832871
0.000894924
0.000937715
0.000970601
0.00106703
0.00108639
0.00109189
0.00108969
0.00108068
0.00106658
0.00104778
0.00102518
0.00099967
0.000973222
0.000947977
0.000925371
0.000902647
0.000877316
0.00084972
0.000821416
0.000792788
0.000763526
0.000730464
0.000696313
0.000659483
0.000615818
0.00056785
0.000556188
0.000676054
0.000766517
0.000836252
0.00089944
0.000943788
0.000976352
0.00106111
0.0010799
0.00108726
0.00108741
0.0010809
0.00106873
0.00105178
0.00103083
0.00100686
0.00098198
0.000958146
0.000936819
0.00091514
0.000890651
0.000863632
0.000835639
0.0008071
0.000777667
0.000744122
0.000710877
0.000674726
0.000632267
0.000585023
0.000564782
0.000669888
0.000767162
0.000837609
0.000899914
0.00094572
0.000978233
0.00105224
0.0010711
0.00108035
0.00108273
0.00107863
0.00106871
0.00105341
0.00103399
0.00101145
0.000987989
0.000965625
0.000945553
0.000924893
0.000901307
0.000875017
0.000847546
0.000819311
0.000789878
0.000756799
0.000724196
0.000688743
0.000647405
0.000601098
0.000574762
0.000662575
0.000765895
0.0008368
0.000896461
0.000944153
0.00097689
0.00104077
0.00106026
0.00107154
0.00107607
0.00107425
0.00106647
0.00105308
0.00103512
0.0010139
0.000991742
0.000970752
0.000951892
0.000932219
0.000909593
0.000884176
0.00085742
0.000829684
0.000800397
0.000768228
0.000736331
0.000701615
0.000661322
0.000616006
0.000584861
0.000654728
0.000762558
0.000833494
0.0008896
0.00093908
0.000972486
0.00102703
0.00104762
0.00106111
0.00106771
0.0010681
0.00106228
0.00105074
0.00103443
0.00101459
0.000993641
0.000973821
0.000956108
0.000937399
0.000915791
0.000891379
0.000865513
0.000838454
0.000809451
0.000778426
0.000747352
0.000713426
0.000674118
0.000629711
0.000594678
0.000646475
0.000757504
0.000828572
0.000882885
0.000930839
0.000965242
0.00101135
0.00103349
0.00104916
0.00105793
0.00106035
0.00105645
0.00104655
0.00103191
0.00101361
0.000994006
0.000975244
0.000958439
0.000940689
0.00092017
0.000896881
0.000872054
0.000845824
0.000817246
0.000787528
0.000757389
0.000724297
0.00068592
0.00064229
0.000604287
0.000638041
0.000751038
0.000822348
0.000875212
0.000919899
0.000955526
0.000994103
0.00101805
0.00103582
0.00104686
0.00105119
0.00104913
0.00104081
0.00102765
0.00101098
0.00099284
0.000975313
0.000959317
0.000942356
0.000922985
0.000900919
0.000877264
0.000851978
0.000824001
0.000795729
0.000766617
0.000734384
0.000696889
0.000653987
0.000613488
0.000629915
0.000743395
0.000815025
0.000866546
0.000908056
0.000943751
0.000976625
0.00100155
0.00102129
0.00103457
0.00104075
0.00104043
0.00103365
0.00102195
0.00100679
0.000990193
0.000973967
0.000958939
0.000942819
0.000924481
0.00090372
0.00088135
0.000857095
0.000830016
0.000803285
0.000775236
0.000743862
0.000707203
0.000664847
0.000622353
0.000622864
0.00073467
0.000806833
0.000857238
0.000896618
0.000930284
0.000960051
0.000984981
0.00100587
0.00102114
0.00102915
0.00103047
0.0010252
0.00101496
0.00100131
0.000986224
0.00097128
0.000957251
0.000942152
0.000924949
0.000905503
0.000884477
0.00086133
0.000835782
0.000810408
0.00078341
0.000752896
0.00071701
0.000675105
0.000631111
0.000619675
0.000723805
0.000797961
0.000847463
0.000885085
0.000915835
0.00094409
0.0009693
0.000990451
0.00100678
0.00101654
0.00101937
0.00101558
0.00100681
0.000994725
0.000981148
0.000967484
0.000954467
0.00094039
0.0009245
0.000906419
0.000886769
0.000864806
0.000841107
0.000817149
0.000791258
0.000761643
0.000726505
0.000684983
0.000639951
0.000618774
0.000711933
0.00078859
0.000837383
0.000873661
0.000902762
0.000928555
0.000954299
0.000975729
0.000992164
0.00100313
0.00100728
0.00100491
0.000997606
0.000987112
0.000975017
0.000962653
0.000950705
0.00093773
0.000923164
0.000906562
0.0008883
0.00086764
0.000846012
0.000823586
0.000798894
0.000770252
0.000735885
0.000694766
0.000648886
0.000620344
0.000699849
0.00077889
0.000827118
0.000862365
0.000890524
0.00091338
0.000939815
0.000961616
0.000978204
0.000989434
0.000994336
0.000993266
0.000987387
0.000978467
0.000967886
0.000956829
0.000946006
0.000934208
0.000921014
0.000905884
0.000889109
0.000870287
0.000850719
0.000829862
0.000806452
0.000778882
0.000745404
0.000704742
0.000658235
0.000623806
0.000688497
0.000769114
0.000816809
0.000851223
0.000878854
0.000898571
0.000925791
0.000948008
0.000964776
0.000976316
0.000981541
0.000981149
0.000976277
0.000968897
0.000959835
0.00095011
0.000940452
0.000929877
0.000918087
0.000904478
0.000889542
0.000873093
0.000855459
0.000836168
0.000814104
0.000787731
0.000755249
0.000715145
0.00066825
0.000628896
0.000678623
0.000759598
0.000806681
0.000840364
0.000867687
0.000884228
0.000912225
0.00093482
0.000951795
0.000963645
0.000969409
0.000969795
0.000966019
0.000959869
0.000952169
0.000943715
0.000935129
0.000925824
0.000915505
0.000903767
0.000890772
0.00087637
0.000860545
0.000842813
0.000822159
0.000797115
0.000765784
0.000726395
0.000679222
0.000636045
0.000671248
0.000750937
0.000797133
0.000830058
0.000857127
0.000870518
0.000899139
0.000921988
0.000939212
0.000951473
0.000957934
0.000959139
0.000956566
0.00095176
0.000945494
0.000938419
0.000931061
0.000923094
0.000914266
0.000904297
0.000893141
0.000880641
0.000866581
0.000850438
0.000831265
0.000807661
0.00077766
0.000739183
0.000691798
0.0006456
0.000667331
0.000743819
0.000788784
0.000820844
0.000847517
0.000857695
0.000886665
0.000909687
0.000927209
0.00093986
0.000947122
0.000949202
0.000947962
0.000944639
0.000939922
0.000934371
0.000928446
0.000922032
0.000914899
0.000906822
0.000897635
0.000887118
0.000874913
0.000860454
0.000842846
0.000820744
0.000792161
0.000754703
0.000707174
0.000658031
0.000668376
0.000738853
0.000782061
0.000813064
0.00083913
0.000846595
0.000875471
0.000898395
0.000916073
0.000929089
0.000937258
0.000940364
0.000940657
0.000939048
0.000936173
0.000932558
0.000928591
0.000924241
0.000919357
0.000913701
0.000906951
0.000898747
0.000888601
0.000875944
0.000859926
0.000839256
0.000811939
0.000775432
0.000727592
0.000675027
0.000675299
0.000738078
0.000778279
0.000807637
0.000832679
0.000838969
0.000867251
0.000889706
0.00090736
0.000920723
0.000930088
0.000934701
0.000937098
0.000937934
0.000937795
0.000937154
0.000936342
0.000935345
0.000933915
0.000931713
0.000928156
0.000922645
0.000914668
0.000903659
0.000888866
0.000869149
0.000842691
0.000806791
0.000758573
0.00070232
0.000692967
0.000744708
0.000780912
0.000807805
0.000830647
0.00084211
0.000869078
0.000891096
0.000909311
0.000923948
0.000935693
0.000943495
0.000949815
0.000955113
0.000959847
0.000964582
0.000969526
0.000974246
0.00097807
0.000980276
0.000980094
0.00097687
0.0009702
0.000959727
0.000944891
0.000924925
0.000898331
0.000862722
0.000815322
0.000758059
0.000738548
0.000773479
0.000801869
0.000823322
0.000841526
0.000909334
0.000934041
0.000955876
0.000975417
0.000992593
0.00100796
0.0010217
0.00103486
0.00104674
0.00105815
0.00107066
0.00108367
0.00109501
0.00110367
0.0011087
0.0011097
0.00110632
0.00109878
0.0010872
0.00107084
0.00104992
0.00102378
0.000991063
0.000950737
0.00090347
0.000877739
0.000889963
0.000903444
0.00091293
0.00092086
0.001266
0.00127921
0.0012917
0.00130325
0.00131209
0.00131724
0.00132527
0.00133478
0.00134102
0.00134727
0.00135901
0.00137187
0.00137989
0.00138378
0.00138321
0.00137987
0.00137318
0.00136495
0.00135564
0.00134271
0.00132913
0.00131583
0.00130233
0.00128789
0.00127453
0.00127073
0.0012747
0.00127845
0.00127926
0.00127888
0.000229323
0.000232779
0.00022643
0.000217185
0.000206202
0.000194428
0.000182489
0.000170848
0.000159731
0.000149408
0.000140067
0.000132026
0.000125006
0.000118239
0.00011135
0.000104353
9.70149e-05
8.9679e-05
8.23863e-05
7.44624e-05
7.16648e-05
0.00031946
7.90665e-05
9.35096e-05
0.000103803
0.000117039
0.000124386
0.000131642
0.000143314
0.00016346
0.00102509
0.00111488
0.00103888
0.000935366
0.00083196
0.000739487
0.00065946
0.000590478
0.000530286
0.000478294
0.00043267
0.00038948
0.000343847
0.000308382
0.000292958
0.000293237
0.000299303
0.000312045
0.000328906
0.000332895
0.000334952
0.000364449
0.000403792
0.000575123
0.000710534
0.000826164
0.000824813
0.000737347
0.000681262
0.000692753
0.00171861
0.00192792
0.00185732
0.00171381
0.00154979
0.00139163
0.00124841
0.00112132
0.00100843
0.000910262
0.000824162
0.000741532
0.000654324
0.000589685
0.000563818
0.00056513
0.000574827
0.000593368
0.000615856
0.000620209
0.00059122
0.000537587
0.000611563
0.000873769
0.00114085
0.00137471
0.00141611
0.00132347
0.00124113
0.00125968
0.00227824
0.00254694
0.00250216
0.00235543
0.0021671
0.00197236
0.00178709
0.00161661
0.00146249
0.00132691
0.00120325
0.00108448
0.000965013
0.000879002
0.000844325
0.000842728
0.000850776
0.000869351
0.000890781
0.000890912
0.00082681
0.000722272
0.000787602
0.00107293
0.00143585
0.00178383
0.00189243
0.00183123
0.00175586
0.00179558
0.00273334
0.00301867
0.00299955
0.00286502
0.00267331
0.00246223
0.00225204
0.00205218
0.00186732
0.00170027
0.00154832
0.00140349
0.00126054
0.00116004
0.00111767
0.00111045
0.00111368
0.00112956
0.00115011
0.00114615
0.00105634
0.000917917
0.000964129
0.00124221
0.00165619
0.00208761
0.0022892
0.00227258
0.00222199
0.0022816
0.00310436
0.00338334
0.00338469
0.00326773
0.00308354
0.00286889
0.00264605
0.00242773
0.00222026
0.00202993
0.00185874
0.00169577
0.00153852
0.00142897
0.00137929
0.0013646
0.00136086
0.00137268
0.00139718
0.00138665
0.0012792
0.00112139
0.0011464
0.00139909
0.00183742
0.00232792
0.00260755
0.00265594
0.00263903
0.00271232
0.00340741
0.00366835
0.00368446
0.00358568
0.00341422
0.00320378
0.00297686
0.00274854
0.00252687
0.00232056
0.00213638
0.0019639
0.00179963
0.00168506
0.0016275
0.00160418
0.0015921
0.00159941
0.00162992
0.00161139
0.00149187
0.00132579
0.00132912
0.00154743
0.00198824
0.00252186
0.0028546
0.0029773
0.00300443
0.0030849
0.00365031
0.00389257
0.00391787
0.00383522
0.00367902
0.00347724
0.00325235
0.00302051
0.00279224
0.0025767
0.00238302
0.00220827
0.00204491
0.00192742
0.00186154
0.00182882
0.00180785
0.00181134
0.00184736
0.00181898
0.00169027
0.00152233
0.00150514
0.00168567
0.00211324
0.00267021
0.00305653
0.00323372
0.00330836
0.00339737
0.0038403
0.00405046
0.00409735
0.00403184
0.00388891
0.00369726
0.00347822
0.00324856
0.00301926
0.00280299
0.00260535
0.0024297
0.00227271
0.00215484
0.00208068
0.00203823
0.00200903
0.00201098
0.00204901
0.00200798
0.0018712
0.00170342
0.0016674
0.0018111
0.00221639
0.00278099
0.00321625
0.00342374
0.00354501
0.00364699
0.00398611
0.00418085
0.00423573
0.00419515
0.00406389
0.00387992
0.00366402
0.00343597
0.00321136
0.00299963
0.00280668
0.00263408
0.0024807
0.00236537
0.00228429
0.00223274
0.00219629
0.00220056
0.00223413
0.00217739
0.00203242
0.00186379
0.00181054
0.00192225
0.00230003
0.00286631
0.00334443
0.00358832
0.00373166
0.00385408
0.00410934
0.0042805
0.00433846
0.00431439
0.00421079
0.00403549
0.00382251
0.00359647
0.00337317
0.00316994
0.00298601
0.00282307
0.0026748
0.00255716
0.00247237
0.002413
0.00237071
0.00237869
0.0024013
0.00232684
0.00217276
0.0020006
0.00193113
0.0020167
0.00236484
0.00293241
0.00344299
0.00372559
0.00389167
0.00403103
0.00419384
0.00434791
0.00440978
0.00439989
0.00431842
0.00416737
0.00395998
0.00373588
0.00351551
0.00331735
0.00314567
0.00299463
0.00285401
0.00273645
0.00264535
0.00258011
0.00253413
0.00254556
0.00254975
0.00245686
0.00229189
0.00211306
0.00202798
0.00209171
0.0024129
0.00298298
0.00351332
0.0038424
0.00403301
0.00418445
0.00424084
0.00438454
0.00445321
0.00445741
0.00439702
0.00426614
0.0040761
0.0038595
0.00364186
0.00344912
0.00328801
0.00314995
0.00301733
0.00290082
0.00280556
0.0027357
0.00268935
0.00270186
0.00268257
0.00256876
0.00239044
0.00220241
0.00210145
0.00214579
0.00244542
0.00299601
0.00353596
0.00391738
0.00414266
0.00431183
0.00425515
0.00439349
0.00447215
0.00449139
0.0044498
0.0043407
0.00416561
0.00396361
0.00375614
0.00356841
0.00341517
0.00329042
0.00316575
0.0030512
0.0029536
0.00288147
0.00283989
0.00284812
0.00280182
0.0026641
0.00247043
0.0022715
0.00215138
0.0021787
0.00245602
0.00297631
0.00351804
0.00393791
0.00420259
0.00439051
0.00424039
0.00437989
0.00446995
0.0045048
0.00448044
0.00439382
0.00423211
0.00404626
0.00385444
0.00367743
0.00353269
0.00341793
0.00330089
0.00318923
0.00309132
0.00301946
0.00298466
0.00298387
0.00290888
0.00274571
0.00253467
0.00232228
0.00218218
0.00219132
0.0024382
0.00292957
0.00346806
0.00391298
0.00422092
0.00443239
0.00420112
0.00434735
0.00445001
0.00450059
0.00449287
0.004428
0.00428323
0.00411004
0.00393659
0.00377596
0.0036422
0.00353542
0.00342499
0.00331709
0.00322095
0.00315233
0.00312297
0.003108
0.00300458
0.00281642
0.00258612
0.0023582
0.00219911
0.00218718
0.00240131
0.00286294
0.00339474
0.00385252
0.00420459
0.00444597
0.00413974
0.00430061
0.00441624
0.0044822
0.00449117
0.00444578
0.00432098
0.0041614
0.00400613
0.00386359
0.00374544
0.00364544
0.00354075
0.00343757
0.00334482
0.00328346
0.00325344
0.00321793
0.00308898
0.00287807
0.00262772
0.00238289
0.00220509
0.00216742
0.00235148
0.00278327
0.00330615
0.00376852
0.00414826
0.00443326
0.00404521
0.00423805
0.00437429
0.00445414
0.00447915
0.00445131
0.00434844
0.00420509
0.00406792
0.00394866
0.00384387
0.00374848
0.00365094
0.00355056
0.00346458
0.00340943
0.00337177
0.00331083
0.00316083
0.00293087
0.00266152
0.00239913
0.00220122
0.00213754
0.00229425
0.0026968
0.00320875
0.00366925
0.00406593
0.00439907
0.00392935
0.00415071
0.00432103
0.00442356
0.00446233
0.00444993
0.00436971
0.00424477
0.00413159
0.0040323
0.00393576
0.00384748
0.00375273
0.00365994
0.00358136
0.00352382
0.00347047
0.00338252
0.00321563
0.0029725
0.00268808
0.00240875
0.00218797
0.00210522
0.00223103
0.00261008
0.00310751
0.00356104
0.00396642
0.00432991
0.00379958
0.00404963
0.00425205
0.00439038
0.00444947
0.0044492
0.0043903
0.00429039
0.00420045
0.00411025
0.004024
0.00394158
0.00385185
0.0037634
0.00368398
0.00361332
0.00353771
0.00342373
0.0032451
0.00299688
0.00270473
0.00241223
0.00217379
0.00207369
0.0021744
0.00252971
0.00300662
0.00345001
0.00385709
0.00423678
0.00366954
0.00394531
0.00417445
0.00434365
0.00443512
0.00445772
0.00441783
0.00434177
0.004266
0.00418848
0.00410956
0.00402872
0.00393895
0.00384476
0.00375255
0.0036582
0.00355431
0.00342016
0.00323663
0.00299334
0.00270502
0.0024069
0.00215948
0.0020431
0.00214929
0.0024607
0.00291203
0.00334305
0.00374449
0.00412782
0.00354311
0.0038406
0.00409146
0.00428883
0.00440814
0.00445224
0.00444198
0.00438812
0.00432512
0.00425375
0.00417498
0.004087
0.0039852
0.0038731
0.00375578
0.00363067
0.00350108
0.00335483
0.00317485
0.00294754
0.00267961
0.00238858
0.00213642
0.00201427
0.00212699
0.00240752
0.00282776
0.00324632
0.00363837
0.00401459
0.00343045
0.00374342
0.00400741
0.00421003
0.00433888
0.00442318
0.00443347
0.00439531
0.00433776
0.00426387
0.00417518
0.00407025
0.00394544
0.00380649
0.0036557
0.00350503
0.00336117
0.00321358
0.00304742
0.00284873
0.00261701
0.00235179
0.00210215
0.00198135
0.00211049
0.00238943
0.00277249
0.00316579
0.00354076
0.00390246
0.00333279
0.00363813
0.00388888
0.00409521
0.00425726
0.00435465
0.00436793
0.00433134
0.00426701
0.00417852
0.00406846
0.00393714
0.00378399
0.00361767
0.00344097
0.00327775
0.00313496
0.00299963
0.00285823
0.00269983
0.00251587
0.00229561
0.00206059
0.00193817
0.00210101
0.00236911
0.0027482
0.00312482
0.0034796
0.00381405
0.00321183
0.00350113
0.0037525
0.00396679
0.00412199
0.00420561
0.00420255
0.00415173
0.0040686
0.00395682
0.00382051
0.00366627
0.00349544
0.00331827
0.00314054
0.00298777
0.00286531
0.00275625
0.00264788
0.00253377
0.00240001
0.00223007
0.00202807
0.00189104
0.00205626
0.00233177
0.00268218
0.00304233
0.00337735
0.00368548
0.00309313
0.00335297
0.0035709
0.00375108
0.00387183
0.00391658
0.0038872
0.00381544
0.00371459
0.00359029
0.003448
0.00329482
0.00313924
0.00298834
0.00284762
0.00273395
0.00264754
0.00257135
0.00249604
0.00241728
0.0023223
0.00219419
0.00202642
0.0018762
0.0019691
0.00224691
0.00255798
0.0028921
0.00320709
0.00348586
0.00287715
0.00309164
0.00325458
0.00337992
0.00345485
0.00346749
0.00342638
0.00335876
0.00327289
0.00317391
0.00306708
0.00295897
0.00285707
0.002765
0.00268444
0.00262085
0.00257081
0.00251987
0.00246666
0.00240787
0.00233502
0.00223358
0.00209411
0.00193866
0.00192075
0.00209859
0.00235684
0.00263798
0.00291662
0.00316421
0.00257779
0.00272997
0.0028432
0.00293384
0.00299304
0.00301423
0.00300247
0.00297829
0.0029426
0.00289834
0.00285014
0.00280318
0.00276027
0.00271818
0.00267483
0.00263755
0.00260148
0.00256497
0.00252544
0.00248002
0.00242353
0.00234684
0.00223967
0.00210921
0.0020359
0.00208989
0.00224351
0.00242082
0.00260664
0.00278427
0.00249137
0.00258397
0.00266269
0.00273267
0.00278761
0.00282177
0.00283756
0.00284598
0.00284354
0.00283229
0.00281505
0.00279199
0.00276661
0.00273713
0.00270953
0.00267864
0.00264939
0.0026216
0.00259367
0.00256355
0.00252861
0.00248311
0.00241718
0.00234009
0.00229163
0.00231878
0.00239486
0.00248568
0.0025675
0.00264204
0.00266089
0.00270339
0.00273853
0.00276961
0.00279378
0.00280832
0.00281487
0.00281629
0.00280922
0.00279796
0.00278804
0.00277465
0.00275517
0.00273018
0.00270447
0.00268152
0.00266383
0.00265205
0.00264215
0.0026323
0.00262206
0.00260927
0.00258936
0.00256451
0.00255883
0.00258186
0.00261807
0.0026544
0.00268318
0.00270733
0.000258481
0.000264477
0.000257007
0.000246891
0.000234817
0.000221694
0.000208201
0.00019483
0.000181785
0.000169283
0.000157331
0.000146148
0.000135222
0.000124391
0.000114511
0.00010644
9.96177e-05
9.74999e-05
9.93516e-05
0.000100821
8.74903e-05
8.2069e-05
9.26873e-05
0.000108667
0.000121494
0.000139029
0.000151776
0.000159306
0.000168855
0.000182424
0.00127378
0.00142317
0.00136468
0.00123931
0.00110304
0.000978366
0.000869433
0.00077494
0.000690765
0.000615004
0.000544493
0.000472586
0.000396275
0.000360359
0.0003825
0.000438225
0.000490663
0.000538313
0.000574113
0.000585992
0.00053243
0.000500847
0.00061292
0.000792973
0.000905282
0.000956398
0.000938704
0.000886498
0.000815542
0.000795615
0.00216377
0.00247844
0.00245023
0.00229431
0.00208948
0.00188072
0.00168586
0.00150921
0.00134717
0.00119859
0.00105945
0.000916406
0.000767259
0.000705682
0.000752653
0.000847248
0.000927493
0.00100031
0.00106761
0.00108492
0.0010298
0.000997907
0.00113566
0.00139665
0.00159162
0.00170391
0.00170767
0.00163679
0.00152195
0.00149479
0.00288924
0.00328492
0.00329325
0.00314673
0.00292001
0.00266734
0.00241686
0.00217954
0.00195561
0.0017473
0.0015521
0.0013451
0.00114055
0.00106754
0.00113282
0.00124693
0.00133932
0.00143051
0.00152264
0.00154654
0.00150647
0.00147652
0.0016134
0.00190873
0.00217565
0.00234588
0.00237611
0.00231216
0.00218842
0.00217292
0.00349797
0.00391264
0.00395477
0.00382832
0.00360016
0.00332668
0.00304159
0.00276146
0.00249115
0.00223751
0.00199392
0.00174239
0.00150539
0.00143068
0.00150718
0.00162768
0.00172358
0.00183142
0.00194327
0.0019785
0.00195694
0.00193412
0.00206344
0.0023738
0.00268208
0.002901
0.00296652
0.002921
0.00281164
0.0028077
0.00402349
0.0044243
0.00448764
0.00438058
0.00415915
0.00387752
0.00357158
0.00326207
0.00295824
0.00266919
0.00239047
0.00211256
0.00186172
0.00179148
0.00187187
0.00198911
0.00208316
0.00220754
0.00233366
0.00237993
0.00237593
0.00236612
0.00248775
0.00279436
0.00311651
0.0033754
0.0034826
0.00347134
0.00338575
0.00338851
0.00447738
0.00484952
0.00492493
0.0048331
0.00462097
0.00433832
0.00402071
0.00369225
0.00336566
0.0030541
0.00275073
0.00246046
0.00221209
0.00214812
0.00222519
0.00233202
0.00242114
0.00256274
0.00269209
0.00274804
0.00275933
0.0027652
0.00288083
0.00316283
0.00347885
0.0037662
0.00392034
0.00395399
0.00389999
0.00390688
0.00486354
0.00520716
0.00528803
0.00520555
0.00500301
0.00472366
0.00440061
0.00406169
0.00372222
0.00339759
0.00308373
0.00278927
0.00255707
0.00249831
0.00256573
0.00265729
0.00274058
0.00289292
0.00301754
0.00307948
0.00310309
0.00312433
0.00323497
0.00347377
0.00376796
0.00406709
0.00427904
0.00436323
0.00435272
0.00438001
0.00517941
0.00549397
0.0055933
0.00551658
0.00531961
0.00504468
0.00471983
0.00437799
0.00403476
0.00370634
0.0033952
0.00310548
0.00289372
0.00283967
0.00289216
0.00296583
0.00304461
0.00319529
0.00330903
0.00337179
0.00340385
0.00343731
0.00353776
0.00372055
0.00401969
0.00434848
0.00458647
0.00472438
0.00476103
0.00480104
0.00545447
0.0057489
0.00584827
0.00579246
0.00559773
0.00532378
0.00499458
0.00464739
0.00430843
0.00398615
0.00368597
0.00341433
0.00321842
0.00316928
0.00320316
0.00325876
0.00333586
0.00346844
0.00356573
0.00362363
0.00365914
0.00370057
0.00378582
0.00393706
0.00425028
0.0045977
0.00486326
0.00502893
0.00511042
0.00517016
0.00569867
0.005964
0.0060556
0.00601296
0.00584698
0.00557305
0.00524084
0.00489018
0.00455186
0.00424307
0.00395932
0.00371303
0.003534
0.00348141
0.00349901
0.0035376
0.0036108
0.00371407
0.00378774
0.00383344
0.00386603
0.00391055
0.00398513
0.00413721
0.00445724
0.00481725
0.00510609
0.00529348
0.00540039
0.00548723
0.00588917
0.00613611
0.0062226
0.00619114
0.00604544
0.00579686
0.00546619
0.00511233
0.00477811
0.00448303
0.00421908
0.00400038
0.00384034
0.00377995
0.00377875
0.00380406
0.00386696
0.00393351
0.00397559
0.00400017
0.00402395
0.00406533
0.00414438
0.00430975
0.00463746
0.00501061
0.00532056
0.00552974
0.00566077
0.00577371
0.00603598
0.00626712
0.00635447
0.00633365
0.00621034
0.00598146
0.00566949
0.00531987
0.00499109
0.0047095
0.00446807
0.00427624
0.00413214
0.00406562
0.00404753
0.0040601
0.00410191
0.00412708
0.00413049
0.00412478
0.00413286
0.00416694
0.00425523
0.0044494
0.004768
0.00514564
0.00547934
0.00572324
0.00588899
0.00603443
0.00614551
0.0063616
0.00645516
0.00644748
0.00634378
0.00613703
0.00584279
0.0055108
0.00519386
0.00492918
0.00470884
0.00454057
0.00440925
0.0043366
0.00430273
0.00430515
0.00431237
0.0042943
0.00425355
0.00420916
0.00419234
0.00421964
0.00431723
0.00451798
0.0048271
0.00521241
0.00557138
0.0058533
0.00604961
0.00623264
0.00622217
0.0064248
0.00652885
0.00653626
0.00645074
0.0062698
0.00599065
0.00568136
0.00538898
0.00514375
0.00494299
0.00479405
0.00467222
0.00459401
0.00454689
0.00453213
0.00449765
0.00443311
0.00434467
0.00425503
0.00420489
0.00422906
0.004304
0.00451617
0.00482823
0.00522463
0.00561011
0.0059325
0.00616381
0.00638923
0.00626753
0.00646469
0.00658008
0.00660395
0.00653643
0.0063836
0.00612465
0.00583865
0.00557914
0.00535365
0.0051717
0.00503755
0.00492154
0.00483451
0.00477679
0.00473315
0.00465324
0.00453936
0.00440222
0.0042635
0.00417467
0.00418214
0.00425011
0.0044575
0.00478334
0.00519396
0.0056059
0.00596882
0.00624659
0.0065103
0.00628104
0.00648547
0.00661343
0.00665524
0.00660767
0.00648122
0.00624872
0.00599003
0.00576558
0.0055591
0.00539533
0.00527042
0.00515626
0.00506003
0.00498406
0.00489713
0.00477067
0.00460691
0.00442256
0.00423574
0.00410388
0.00408746
0.00417174
0.00436389
0.00470309
0.00512973
0.00556685
0.00597042
0.00629565
0.00660006
0.00626419
0.00648257
0.00663381
0.00669561
0.00666999
0.00656747
0.00636776
0.00614775
0.00594565
0.00576317
0.00561151
0.0054882
0.00536979
0.00525995
0.00515186
0.00501366
0.00483787
0.0046269
0.00439994
0.00417138
0.00399645
0.00394522
0.00405103
0.00424356
0.00459505
0.00503833
0.00550035
0.00594074
0.00631357
0.00666079
0.00621798
0.00645754
0.00663855
0.0067306
0.00672868
0.00664742
0.00648471
0.00630215
0.00611908
0.00595819
0.00581174
0.0056831
0.00555089
0.00541456
0.00525864
0.00506663
0.00484118
0.00458863
0.004327
0.00406783
0.00385482
0.00376183
0.00387948
0.00410345
0.00446243
0.00492514
0.00541293
0.00588297
0.0063008
0.00668275
0.006142
0.00641725
0.00663247
0.00675322
0.00678035
0.00672489
0.00660025
0.0064448
0.0062822
0.0061283
0.00597975
0.00583457
0.00567576
0.0054942
0.00528378
0.00503622
0.00476593
0.00448191
0.0041967
0.00392176
0.00368235
0.00355673
0.00365047
0.00393523
0.00429675
0.00479257
0.00530724
0.00579763
0.0062524
0.00666211
0.00604455
0.00635353
0.00659587
0.00674584
0.00680351
0.00679486
0.00670036
0.00655424
0.00640156
0.00624844
0.00608644
0.00590933
0.00570624
0.0054722
0.00520179
0.00490512
0.00460156
0.00430017
0.00400651
0.00373151
0.00348403
0.00332592
0.00339686
0.00373783
0.00413392
0.00463254
0.00518255
0.00568829
0.0061661
0.00659898
0.00592116
0.00626719
0.0065405
0.00671319
0.00678327
0.00680771
0.00673002
0.00659412
0.00643943
0.00627312
0.00608731
0.00586794
0.00561366
0.00532527
0.00499875
0.00466774
0.00435084
0.00404965
0.00376567
0.0035064
0.00326922
0.00309303
0.0031258
0.00350552
0.00400327
0.00448269
0.00502345
0.00556035
0.00605094
0.00649939
0.00578687
0.00614554
0.00640209
0.00657543
0.00669709
0.00673901
0.0066598
0.00651843
0.00634817
0.00615672
0.00593815
0.00567948
0.00537817
0.00504734
0.00468497
0.00434447
0.00403958
0.00375855
0.00350202
0.00327225
0.00306662
0.00289181
0.00286399
0.00322963
0.00381868
0.00433809
0.00489781
0.00543546
0.00593018
0.0063688
0.00556347
0.00589523
0.00616511
0.0063764
0.00650266
0.00653018
0.00643292
0.00627369
0.00608067
0.00586236
0.00561571
0.00533115
0.00500957
0.00466629
0.00430718
0.00398977
0.00372182
0.00347754
0.00326169
0.00308188
0.00291474
0.00275052
0.00266515
0.002938
0.00355603
0.00409339
0.00466145
0.00520592
0.0057088
0.00613488
0.00523612
0.00557364
0.00583546
0.00602286
0.00612911
0.00611946
0.00599914
0.00582448
0.00561913
0.00539212
0.00514262
0.0048648
0.00456335
0.00425397
0.00394624
0.00368135
0.00346326
0.00327185
0.00311341
0.0029768
0.00284246
0.00269441
0.0025695
0.00269558
0.00320035
0.00375155
0.00428583
0.00482282
0.00532502
0.00573741
0.00477742
0.00508584
0.00530441
0.00545564
0.00552153
0.00548764
0.00536528
0.00520328
0.00501989
0.00482259
0.00461146
0.00438353
0.00414512
0.0039083
0.0036798
0.00347732
0.00332061
0.00318098
0.00306413
0.00295847
0.00285009
0.00272298
0.00258732
0.00258212
0.00286334
0.00332899
0.00379619
0.00428582
0.00475786
0.00515872
0.00414393
0.00441264
0.00458561
0.00470455
0.0047601
0.00474282
0.00466208
0.00455538
0.00443419
0.00430324
0.00416272
0.00401129
0.00385324
0.00369262
0.00353145
0.00339585