/*--------------------------------*- C++ -*----------------------------------*\
| =========                 |                                                 |
| \\      /  F ield         | OpenFOAM: The Open Source CFD Toolbox           |
|  \\    /   O peration     | Version:  5.0                                   |
|   \\  /    A nd           | Web:      www.OpenFOAM.org                      |
|    \\/     M anipulation  |                                                 |
\*---------------------------------------------------------------------------*/
FoamFile
{
    version     2.0;
    format      ascii;
    class       volScalarField;
    location    "750/air";
    object      alphat;
}
// * * * * * * * * * * * * * * * * * * * * * * * * * * * * * * * * * * * * * //

dimensions      [1 -1 -1 0 0 0 0];

internalField   nonuniform List<scalar> 
243000
(
0.000198411
0.000201286
0.00019799
0.000191582
0.000183436
0.000174411
0.000165117
0.000156011
0.000147397
0.000139549
0.000132674
0.000127083
0.000122921
0.000120187
0.000118203
0.000116352
0.00011437
0.000112318
0.000110324
0.000108472
0.00010689
0.000105617
0.000103689
9.95557e-05
9.13452e-05
9.4256e-05
0.000114763
0.000125036
0.000133635
0.000142207
0.00087622
0.000937509
0.000958012
0.000959572
0.000950864
0.000934927
0.000914036
0.000890096
0.000864572
0.000838816
0.000814076
0.000792142
0.000772933
0.000755406
0.000736367
0.000714799
0.000691513
0.000668282
0.00064584
0.000624459
0.000604592
0.000586091
0.000564795
0.000534449
0.000483717
0.000473851
0.000560676
0.000612704
0.000643164
0.000668757
0.000955917
0.0010248
0.0010521
0.00105589
0.00104775
0.00103155
0.00100981
0.000984682
0.000957704
0.000930338
0.000903886
0.000880075
0.000858598
0.000837968
0.000814594
0.000787739
0.000758953
0.000730783
0.000704232
0.000679528
0.000656706
0.000635
0.000611475
0.000580966
0.000532927
0.000499492
0.000580959
0.000655105
0.000699179
0.000736771
0.00100235
0.00107733
0.00111109
0.00111827
0.00111221
0.00109747
0.00107673
0.00105222
0.00102557
0.00099833
0.00097182
0.000947688
0.000925599
0.000903699
0.000878057
0.000848039
0.000815605
0.00078384
0.000754008
0.000726422
0.000700897
0.000676191
0.000649881
0.000618265
0.000572111
0.000529418
0.00057965
0.000677866
0.000734973
0.00078322
0.00102989
0.00111003
0.00114861
0.00115961
0.00115626
0.00114376
0.00112491
0.00110195
0.00107656
0.00105034
0.00102464
0.00100102
0.000979189
0.000956984
0.00093017
0.000898272
0.000863513
0.000829254
0.000796994
0.000767144
0.000739412
0.000712285
0.000683412
0.000650483
0.000605668
0.00055741
0.000571482
0.000688969
0.000758875
0.000815797
0.00104638
0.0011274
0.00117178
0.0011866
0.00118625
0.00117638
0.00115989
0.001139
0.00111539
0.00109073
0.00106634
0.00104375
0.00102268
0.00100071
0.000973394
0.000940418
0.000904296
0.000868365
0.000834375
0.000802825
0.000773383
0.000744396
0.000713399
0.000679279
0.000635452
0.000583986
0.000568145
0.000691008
0.000774997
0.000840008
0.00105476
0.0011345
0.00118347
0.00120312
0.00120597
0.00119894
0.00118509
0.00116657
0.00114505
0.00112225
0.0010995
0.00107829
0.0010583
0.00103692
0.00100952
0.000976041
0.000939202
0.000902225
0.000867064
0.00083429
0.000803564
0.000773184
0.00074053
0.000705448
0.000662297
0.000609915
0.000577257
0.000683117
0.000784452
0.000857063
0.0010566
0.00113429
0.00118623
0.00121139
0.00121783
0.00121381
0.00120276
0.00118678
0.00116754
0.00114681
0.00112591
0.00110631
0.0010876
0.00106701
0.00103985
0.00100629
0.000969203
0.000931679
0.000895781
0.000862175
0.000830528
0.000799134
0.000765246
0.000729448
0.000686727
0.000634447
0.000591632
0.000669962
0.000788966
0.000868161
0.00105374
0.00112956
0.00118336
0.00121255
0.00122336
0.0012226
0.00121445
0.00120113
0.00118429
0.00116575
0.00114685
0.00112901
0.0011117
0.00109203
0.00106533
0.00103204
0.00099504
0.000957399
0.000921115
0.000886993
0.000854729
0.000822617
0.00078787
0.000751594
0.000709193
0.000657472
0.000608739
0.000657968
0.000789702
0.000874395
0.00104706
0.00112129
0.00117649
0.00120887
0.00122361
0.00122643
0.00122131
0.0012107
0.00119633
0.00118006
0.00116327
0.00114727
0.00113142
0.00111275
0.00108671
0.00105395
0.00101732
0.000979891
0.000943518
0.00090915
0.00087652
0.000843939
0.000808663
0.000772126
0.00073003
0.000679169
0.000626307
0.000648178
0.000786985
0.000876735
0.00103691
0.00111003
0.00116638
0.00120156
0.0012201
0.00122629
0.00122415
0.00121632
0.00120445
0.0011905
0.00117587
0.00116177
0.00114738
0.00112977
0.00110454
0.00107254
0.00103653
0.000999543
0.000963374
0.000928984
0.000896203
0.000863361
0.00082784
0.000791244
0.000749487
0.000699378
0.000643901
0.000641212
0.000781855
0.000876263
0.00102376
0.00109613
0.00115355
0.00119136
0.00121339
0.00122296
0.00122397
0.00121865
0.00120922
0.00119764
0.00118519
0.00117301
0.0011601
0.00114355
0.00111928
0.00108822
0.00105304
0.0010167
0.000980976
0.000946778
0.000914026
0.000881114
0.000845592
0.000809112
0.000767746
0.000718363
0.000661607
0.000637968
0.000775038
0.000874043
0.00100955
0.00107997
0.00113838
0.00117874
0.00120396
0.001217
0.00122095
0.00121851
0.00121128
0.00120197
0.00119168
0.00118139
0.00116996
0.0011545
0.00113128
0.00110132
0.00106716
0.00103166
0.000996556
0.000962779
0.000930234
0.000897412
0.000862087
0.000825868
0.000784959
0.000736347
0.000679509
0.000640164
0.000766405
0.000870645
0.000994772
0.00106295
0.00112127
0.00116404
0.00119233
0.00120869
0.00121559
0.00121592
0.00121128
0.00120391
0.0011957
0.00118725
0.00117726
0.00116292
0.00114086
0.00111214
0.00107915
0.00104465
0.00101034
0.000977161
0.000945018
0.000912432
0.000877467
0.000841617
0.000801219
0.000753378
0.000696714
0.000650388
0.000753344
0.00086603
0.000979015
0.00104611
0.00110301
0.00114763
0.00117882
0.00119831
0.00120826
0.00121123
0.00120911
0.00120405
0.00119758
0.00119087
0.00118228
0.00116909
0.00114826
0.0011209
0.00108924
0.0010559
0.00102253
0.000990093
0.000958519
0.000926325
0.000891867
0.000856506
0.000816691
0.000769589
0.000713364
0.000661978
0.000740689
0.000860527
0.000961978
0.00102918
0.00108552
0.00112997
0.0011637
0.00118614
0.0011992
0.00120472
0.0012051
0.00120223
0.00119774
0.0011925
0.00118526
0.00117323
0.00115371
0.00112782
0.00109762
0.00106559
0.00103331
0.00100175
0.000970898
0.000939248
0.000905409
0.000870664
0.000831496
0.000785112
0.000729403
0.000674045
0.000730012
0.00085457
0.000943382
0.00101191
0.00106838
0.00111267
0.00114731
0.00117254
0.00118855
0.00119664
0.00119939
0.00119873
0.00119614
0.00119247
0.00118641
0.00117557
0.00115743
0.00113311
0.00110451
0.00107392
0.00104285
0.00101231
0.00098233
0.00095137
0.000918238
0.000884207
0.000845761
0.000800093
0.000744935
0.000687336
0.000721697
0.000848403
0.000922855
0.000994076
0.00105136
0.00109586
0.00113015
0.00115773
0.00117652
0.00118719
0.00119218
0.0011937
0.00119297
0.00119081
0.00118597
0.00117632
0.00115962
0.00113698
0.00111008
0.00108106
0.00105134
0.00102195
0.000992985
0.00096287
0.00093051
0.000897275
0.000859622
0.000814683
0.000760076
0.000701079
0.000716237
0.000842395
0.000899826
0.000975505
0.0010343
0.00107941
0.00111387
0.00114203
0.00116331
0.00117656
0.00118369
0.00118728
0.00118836
0.0011877
0.00118404
0.00117563
0.00116047
0.00113962
0.00111454
0.00108722
0.00105897
0.00103086
0.00100303
0.000973921
0.00094238
0.000910007
0.000873217
0.000829036
0.000774949
0.000714535
0.000713597
0.000837204
0.00087396
0.000956074
0.00101714
0.00106322
0.0010981
0.00112583
0.00114908
0.00116492
0.00117407
0.00117962
0.00118245
0.00118325
0.00118082
0.00117369
0.00116015
0.0011412
0.00111807
0.00109258
0.00106593
0.00103922
0.00101263
0.000984655
0.000953988
0.000922534
0.000886674
0.000843302
0.0007897
0.000728127
0.000714332
0.000832394
0.000844743
0.000935707
0.00099989
0.00104726
0.00108271
0.0011104
0.00113407
0.00115231
0.00116343
0.00117082
0.00117532
0.00117753
0.00117639
0.00117063
0.0011588
0.00114187
0.00112083
0.00109731
0.00107239
0.00104717
0.00102189
0.000995154
0.00096544
0.00093497
0.000900107
0.000857579
0.000804451
0.000742131
0.000716599
0.000827907
0.000809073
0.000914427
0.000982672
0.00103155
0.0010677
0.00109551
0.00111858
0.00113871
0.0011517
0.00116087
0.00116697
0.00117055
0.00117076
0.00116647
0.00115647
0.00114167
0.00112288
0.00110148
0.00107841
0.00105477
0.00103085
0.00100539
0.000976792
0.000947403
0.000913659
0.000871985
0.00081932
0.000756108
0.000720903
0.000823853
0.000772855
0.000892571
0.000965724
0.00101622
0.00105307
0.00108107
0.0011038
0.00112416
0.00113883
0.00114959
0.00115719
0.00116213
0.00116369
0.00116101
0.00115299
0.00114048
0.00112408
0.00110492
0.00108383
0.00106185
0.00103933
0.00101515
0.000988036
0.000959934
0.00092743
0.00088666
0.000834434
0.000770406
0.000727028
0.000820513
0.000747294
0.000869871
0.000949422
0.0010014
0.00103879
0.00106698
0.00108973
0.00110983
0.00112473
0.00113669
0.00114554
0.00115173
0.00115463
0.00115368
0.00114773
0.00113765
0.0011237
0.00110705
0.00108806
0.00106788
0.00104685
0.00102404
0.000999284
0.000972892
0.000941819
0.000902049
0.000850128
0.000785278
0.000735039
0.000818471
0.000739861
0.00084823
0.000934323
0.000987357
0.00102514
0.00105368
0.0010766
0.00109673
0.00111143
0.00112305
0.00113196
0.00113892
0.00114304
0.00114378
0.00113993
0.00113235
0.00112103
0.00110693
0.00109091
0.00107331
0.00105453
0.00103421
0.00101211
0.000987598
0.000958009
0.000919257
0.000867463
0.000801561
0.000745449
0.000819175
0.000748835
0.000832595
0.000921897
0.000975313
0.00101323
0.00104196
0.00106513
0.00108552
0.00110057
0.00111238
0.00112186
0.00112949
0.00113469
0.0011371
0.00113586
0.00113129
0.00112344
0.0011128
0.00109982
0.00108488
0.00106837
0.0010502
0.00103008
0.00100706
0.00097859
0.000940507
0.00088863
0.000821129
0.000760459
0.000823853
0.000770483
0.000828753
0.000915126
0.000967915
0.0010058
0.00103494
0.00105872
0.00107995
0.00109637
0.00110937
0.00112037
0.00112963
0.001137
0.00114201
0.00114402
0.00114298
0.00113883
0.00113172
0.00112181
0.00110945
0.00109498
0.00107844
0.00105952
0.00103723
0.00100918
0.000971034
0.000918221
0.000848331
0.000783652
0.000836369
0.000811476
0.000853431
0.000928988
0.000980025
0.00101804
0.00104807
0.00107342
0.00109669
0.00111622
0.00113211
0.00114622
0.00115871
0.00116976
0.00117866
0.00118466
0.00118729
0.00118655
0.00118223
0.00117443
0.00116355
0.00115004
0.00113393
0.00111487
0.00109202
0.00106328
0.00102461
0.000970348
0.000897673
0.000829758
0.000870949
0.000950983
0.0009781
0.00103801
0.0010842
0.00112099
0.00115149
0.00117784
0.00120234
0.00122498
0.0012442
0.00126142
0.00127682
0.00129188
0.00130432
0.00131283
0.00131712
0.00131747
0.0013136
0.00130569
0.00129443
0.00128046
0.0012638
0.00124353
0.00121943
0.00119039
0.00115335
0.00110376
0.0010374
0.000974649
0.000998507
0.00143934
0.00145336
0.00148183
0.00150554
0.00152571
0.00154022
0.00154937
0.00155746
0.00156609
0.00157535
0.0015832
0.00159019
0.00160197
0.00161048
0.00161436
0.00161545
0.00161401
0.00161019
0.00160404
0.00159696
0.00158971
0.0015821
0.00156987
0.00155598
0.00154171
0.00152504
0.00150514
0.00147608
0.00144934
0.0014552
0.000237059
0.000248518
0.000247272
0.000241712
0.000233197
0.000222978
0.000211925
0.000200704
0.000189774
0.000179506
0.000170127
0.000161889
0.000154922
0.000149205
0.000143686
0.000137575
0.000130674
0.000123205
0.000115449
0.000107574
0.000100339
9.51608e-05
9.08948e-05
8.69844e-05
9.04734e-05
0.000106511
0.000123604
0.000133146
0.000140649
0.000153988
0.000958193
0.00113261
0.0011274
0.00107704
0.00100521
0.000928846
0.000856841
0.000791906
0.00073311
0.0006796
0.000629536
0.00058264
0.000535471
0.000482954
0.000426908
0.000377494
0.000338994
0.000313742
0.000299434
0.000294641
0.00029953
0.000308841
0.000330076
0.000332829
0.000345573
0.000496676
0.000639034
0.000768855
0.000865559
0.000927983
0.00162555
0.00197357
0.00203981
0.00199608
0.00189035
0.00176579
0.00164127
0.00152498
0.00141696
0.00131703
0.00122223
0.00113154
0.00103912
0.000934601
0.000824658
0.000727054
0.000650701
0.000600524
0.000572116
0.000561613
0.000568674
0.000579328
0.0005929
0.000566085
0.0005329
0.000662125
0.000858922
0.00110673
0.00133278
0.00149475
0.00211195
0.00263562
0.0027756
0.00276261
0.0026502
0.00250357
0.00234755
0.00219618
0.00205141
0.00191568
0.00178484
0.00165411
0.00151834
0.00136923
0.00121375
0.00107574
0.00096654
0.000893577
0.000850988
0.000832848
0.000835009
0.000840892
0.000839065
0.00077273
0.000677667
0.000726219
0.000944027
0.00128306
0.00163981
0.00192519
0.00250024
0.0031431
0.00335202
0.00337331
0.00327238
0.00311994
0.00294867
0.00277634
0.00260718
0.0024449
0.00228288
0.00212233
0.00195228
0.00176553
0.00157248
0.00140209
0.00126678
0.00117409
0.00111871
0.00109283
0.00108883
0.00108815
0.00107242
0.000968408
0.000811863
0.000774913
0.000976461
0.00139761
0.00187431
0.00228976
0.0028156
0.00349136
0.0038015
0.00385129
0.00377308
0.00362522
0.00345143
0.0032685
0.00308453
0.00290222
0.00272037
0.00253601
0.0023386
0.00212252
0.00189952
0.00170385
0.00154823
0.00143874
0.00137181
0.00133863
0.00132862
0.00132192
0.0012952
0.00115851
0.000948146
0.000833077
0.000978193
0.0014623
0.00204787
0.00259149
0.00305512
0.00371277
0.00407992
0.00421903
0.00416882
0.00403515
0.00386763
0.00368206
0.00349044
0.00329578
0.00310063
0.00289957
0.00268151
0.00244343
0.00219775
0.00198279
0.0018116
0.00168785
0.00161051
0.00157043
0.001555
0.00154372
0.00150829
0.00134383
0.00108857
0.000904033
0.00097592
0.00149104
0.00216489
0.0028305
0.0032328
0.00388176
0.00427149
0.00445301
0.00447313
0.0043641
0.00420851
0.00402716
0.00383348
0.00363452
0.00342805
0.00321837
0.00298587
0.00273191
0.00247026
0.00224111
0.00205795
0.00192263
0.00183575
0.00178904
0.00176894
0.00175514
0.00171199
0.00152389
0.00123159
0.000986074
0.000994708
0.00149649
0.00223553
0.00300836
0.0033753
0.00400565
0.00441228
0.00462298
0.00467837
0.00462128
0.00448378
0.00431319
0.00412169
0.00392223
0.00371157
0.00349581
0.003256
0.00299132
0.0027197
0.00248085
0.00228843
0.00214425
0.00204854
0.00199549
0.00197139
0.00195695
0.00190643
0.0016981
0.00137527
0.0010797
0.00102872
0.00147502
0.00227016
0.00313105
0.00347945
0.00408863
0.0045081
0.00474591
0.00483119
0.00480766
0.00470323
0.0045479
0.00436207
0.00416517
0.0039571
0.00373519
0.00349517
0.00322538
0.00294862
0.00270376
0.00250435
0.0023534
0.00224965
0.0021907
0.00216311
0.00214934
0.00209185
0.00186626
0.00151812
0.00118131
0.00107009
0.00144727
0.00227888
0.00320562
0.00353942
0.00413258
0.00456295
0.00482701
0.00494288
0.00494696
0.0048728
0.00473816
0.00456098
0.00436934
0.00416592
0.00394695
0.00370346
0.00343605
0.00315895
0.00291121
0.00270677
0.00255063
0.00243984
0.00237553
0.00234491
0.00233281
0.00226875
0.00202852
0.00165923
0.00128862
0.00111556
0.00142365
0.00227101
0.00323901
0.00354465
0.00413692
0.00458143
0.00487179
0.00501887
0.00505083
0.00500295
0.00489239
0.00472342
0.00453932
0.00434291
0.00413057
0.00388998
0.00362379
0.00335247
0.00310431
0.00289656
0.00273628
0.00262001
0.00255083
0.0025176
0.00250797
0.00243778
0.00218525
0.00179794
0.00140096
0.00117379
0.00140913
0.00224863
0.00323989
0.00348143
0.00410059
0.00456808
0.0048846
0.00506375
0.00512337
0.00510005
0.00501357
0.00486119
0.00467984
0.00449283
0.0042889
0.00405639
0.00379759
0.00353052
0.00328386
0.00307445
0.00291099
0.00279069
0.00271728
0.00268203
0.00267539
0.00259969
0.002337
0.00193362
0.00151781
0.00124249
0.00141061
0.00221831
0.00322138
0.00334752
0.00401953
0.00452519
0.00487007
0.00508122
0.00516774
0.00516867
0.00510512
0.00497829
0.00480229
0.00461948
0.00442592
0.00420473
0.00395593
0.00369589
0.00345259
0.00324153
0.00307569
0.00295234
0.00287536
0.002839
0.00283554
0.00275514
0.00248444
0.00206727
0.00163263
0.0013146
0.00142665
0.00218684
0.00318175
0.00316506
0.00388376
0.00445331
0.0048323
0.00507394
0.00518858
0.0052128
0.00517025
0.00506687
0.00491146
0.00473063
0.00454523
0.00433764
0.00410046
0.00384886
0.00360996
0.00339952
0.00323127
0.00310537
0.00302547
0.00298927
0.00298863
0.00290454
0.00262823
0.00220013
0.0017477
0.0013922
0.00145433
0.00216032
0.003134
0.00295439
0.00371333
0.00433682
0.0047718
0.00504559
0.00518975
0.00523633
0.00521446
0.00513379
0.00499456
0.0048302
0.00465114
0.00445754
0.0042327
0.00399043
0.00375639
0.00354834
0.00337814
0.00324997
0.00316778
0.00313356
0.00313432
0.00304773
0.00276875
0.00233297
0.00186443
0.00147958
0.00149335
0.00214068
0.00308604
0.00273387
0.00352641
0.0041922
0.00468541
0.00500026
0.00517395
0.00524317
0.00524151
0.00518134
0.00506369
0.00491611
0.00474757
0.0045662
0.00435398
0.00412141
0.00389373
0.00368682
0.00351608
0.00338576
0.00330201
0.00327059
0.00327109
0.0031836
0.00290554
0.00246571
0.00198353
0.00157536
0.00154127
0.00212865
0.00304086
0.00251853
0.00333381
0.00403203
0.00457422
0.00493999
0.00514417
0.00523777
0.00525495
0.00521363
0.00511989
0.00498682
0.00483466
0.00466488
0.00446476
0.00424189
0.00402002
0.00381555
0.00364443
0.00351161
0.00342694
0.00339733
0.00339586
0.00330953
0.00303651
0.00259704
0.00210477
0.00167909
0.00158807
0.00212988
0.00300103
0.00231615
0.0031455
0.00386663
0.00444826
0.00485896
0.00510587
0.00522224
0.00525811
0.00523557
0.00516351
0.00504642
0.00491082
0.00475337
0.00456405
0.00435043
0.00413432
0.00393225
0.0037606
0.00362521
0.0035392
0.0035088
0.00350294
0.00342094
0.00315719
0.00272387
0.00222732
0.00178809
0.00164708
0.00214013
0.00296788
0.00213412
0.00296966
0.00370455
0.00431582
0.00476514
0.00505634
0.00519945
0.00525342
0.00524961
0.00519622
0.00509756
0.00497309
0.00482502
0.0046477
0.00444236
0.00423124
0.00403109
0.00385853
0.00372044
0.00363251
0.00359664
0.00358393
0.00350904
0.00325971
0.00284025
0.00234822
0.00189736
0.00171968
0.00215871
0.00294169
0.00198131
0.00281276
0.00355249
0.00418374
0.00466414
0.00499249
0.00516973
0.00523981
0.00525417
0.00521499
0.00513241
0.00501384
0.00487697
0.00470659
0.004507
0.00429913
0.00410005
0.00392649
0.00378381
0.00369166
0.00364722
0.00362637
0.00355984
0.00333215
0.00293685
0.002457
0.00200311
0.00180186
0.00218683
0.00292407
0.00186652
0.00267908
0.0034151
0.00405721
0.00455993
0.00491867
0.00513401
0.00521527
0.00523404
0.00520955
0.00513589
0.00502057
0.00488513
0.0047215
0.00452354
0.0043165
0.00411835
0.00393921
0.00379333
0.0036937
0.00364046
0.00361331
0.00355549
0.003359
0.00300167
0.00254559
0.00209939
0.00188019
0.00223371
0.00291779
0.00179542
0.00257027
0.00329426
0.003939
0.00445367
0.00481716
0.00503208
0.00514184
0.00517742
0.00515342
0.0050799
0.00496428
0.00482033
0.00465439
0.00445852
0.00425092
0.00404973
0.00386623
0.00371753
0.00361301
0.00355472
0.00352662
0.00347909
0.0033245
0.0030216
0.00260372
0.00218072
0.00195218
0.0022879
0.00291447
0.00176806
0.00248602
0.0031884
0.00380237
0.00427545
0.00461364
0.00486236
0.00500017
0.00503652
0.00499857
0.00491594
0.00479547
0.00464149
0.0044653
0.00427005
0.00406647
0.00386504
0.00368609
0.00354164
0.00344034
0.00338438
0.00336046
0.00332661
0.00322199
0.00298812
0.00262244
0.00223766
0.0020159
0.00232848
0.00290695
0.00177574
0.00241996
0.00304346
0.00358079
0.00402306
0.0043654
0.00459449
0.00471401
0.00472787
0.00467865
0.00459023
0.0044687
0.00431662
0.00414168
0.00395144
0.00376607
0.00358874
0.00343064
0.00330278
0.00321347
0.00316405
0.00314493
0.00312856
0.00306979
0.00290826
0.00260252
0.00226674
0.00206778
0.00235168
0.00286811
0.001833
0.00233125
0.002864
0.00333354
0.00370235
0.00397973
0.00415791
0.00423935
0.00423465
0.0041848
0.00410676
0.00400636
0.00388361
0.00374337
0.00359022
0.00344622
0.00331725
0.00320086
0.003103
0.00303282
0.00299112
0.00297219
0.00296036
0.00292514
0.00281578
0.00257017
0.00227653
0.00209741
0.00233914
0.00274394
0.00186775
0.00223753
0.00263348
0.00298711
0.00326107
0.00346508
0.00360336
0.00368067
0.00369391
0.00367642
0.00363896
0.00358557
0.00351671
0.00343593
0.00334693
0.00326151
0.00318575
0.00311481
0.00304885
0.00299622
0.00295824
0.00293153
0.00290782
0.00286888
0.00277891
0.00258091
0.00230477
0.00211344
0.00225628
0.00254472
0.00194519
0.00216334
0.00245228
0.00270583
0.0029137
0.00308093
0.00321046
0.00330527
0.00335307
0.00337707
0.00338347
0.00337515
0.00335436
0.00332375
0.00328488
0.00324268
0.00319818
0.00314999
0.00310394
0.00306288
0.00302901
0.00300047
0.00297175
0.00293111
0.00285458
0.00269707
0.00244833
0.00222451
0.00224057
0.00242336
0.00233102
0.00243969
0.00262993
0.00279831
0.00293999
0.00305821
0.00315672
0.00323451
0.00328223
0.00331277
0.00332934
0.00333271
0.00332309
0.00330221
0.00327014
0.0032357
0.0032021
0.00316868
0.00313742
0.00311054
0.0030897
0.00307337
0.00305646
0.00303006
0.00297885
0.00288212
0.00273207
0.00256206
0.00252898
0.00262422
0.00288888
0.00292476
0.00298668
0.00304573
0.0031017
0.0031513
0.0031938
0.00322722
0.00324749
0.00325776
0.00326098
0.00325901
0.00325351
0.00323626
0.00320764
0.00317829
0.0031541
0.00313456
0.00312148
0.00311558
0.00311565
0.0031195
0.00312294
0.00312263
0.00311179
0.00308492
0.00304306
0.0029816
0.00297194
0.00299214
0.0002636
0.000280294
0.000279456
0.00027416
0.000265544
0.000254822
0.000242919
0.000230561
0.000218226
0.000206278
0.00019489
0.000184244
0.000174334
0.000164973
0.000154855
0.000143436
0.000131052
0.000118711
0.000107069
9.64946e-05
8.4439e-05
0.00043142
8.05785e-05
0.000367049
9.73388e-05
0.000114223
0.000130076
0.000139346
0.000148704
0.000172334
0.00119676
0.00145946
0.00150708
0.00145689
0.0013632
0.0012582
0.00115677
0.00106297
0.000975993
0.000894023
0.000814265
0.000735635
0.000651789
0.000560092
0.000476319
0.000422509
0.000397807
0.00040018
0.000417539
0.000439044
0.000468837
0.000576787
0.000451297
0.000354452
0.000352301
0.000537838
0.000732328
0.000911534
0.00101183
0.00104864
0.00201531
0.00253625
0.00272399
0.00271929
0.00259941
0.00243772
0.00226487
0.0020957
0.00193186
0.00177253
0.00161433
0.00145541
0.0012832
0.00109652
0.000928153
0.00082013
0.000768816
0.000766709
0.000793365
0.000825121
0.000879117
0.000969001
0.000832479
0.000603073
0.000566019
0.000794314
0.00111928
0.00146567
0.00170843
0.00180471
0.0026309
0.00338073
0.00368206
0.00373975
0.00363017
0.00344854
0.00323679
0.00301814
0.00279786
0.00257769
0.00235579
0.00212918
0.00187713
0.00160772
0.00136894
0.00121682
0.00114123
0.00113111
0.00115942
0.0011971
0.00125566
0.00132633
0.00115979
0.000855594
0.000726586
0.00091549
0.00130609
0.00180607
0.00221611
0.00241
0.00313329
0.00403416
0.00444259
0.00455219
0.00446893
0.00428453
0.00405496
0.0038051
0.00354518
0.0032802
0.00301035
0.00272163
0.00240468
0.00207077
0.00177809
0.00159308
0.0014987
0.00148062
0.0015085
0.00154967
0.00160793
0.00165861
0.00146634
0.00110829
0.000881108
0.000989847
0.001415
0.0020676
0.00263953
0.00294054
0.0035573
0.00449673
0.00503542
0.00519899
0.00515098
0.00497406
0.00474001
0.00447137
0.00418428
0.00388696
0.00357571
0.00324164
0.00287369
0.00248895
0.00215682
0.00194846
0.00184044
0.00181468
0.00184098
0.0018842
0.00194137
0.00197466
0.00176088
0.0013625
0.00104509
0.00105847
0.00148577
0.00225553
0.0029944
0.00341955
0.00389035
0.00482186
0.00541933
0.00571132
0.00570093
0.0055438
0.0053125
0.00503502
0.00472969
0.0044089
0.004065
0.00369872
0.00329246
0.00286858
0.00251048
0.00228649
0.00216845
0.00213483
0.00215856
0.00220321
0.00225998
0.00227804
0.00204567
0.00161676
0.00122592
0.00114439
0.00153243
0.00238939
0.00328021
0.00384874
0.00417705
0.00510466
0.00572481
0.0060473
0.0061383
0.00601225
0.00578894
0.00551164
0.00519458
0.00485714
0.00449146
0.00410042
0.0036684
0.00321736
0.00284457
0.00261077
0.00248498
0.00244297
0.00246293
0.00250851
0.00256725
0.00256939
0.00232037
0.00186802
0.00141916
0.00125375
0.00156591
0.00248374
0.00350609
0.00422313
0.00443907
0.0053499
0.0059814
0.00632839
0.00644602
0.00639108
0.0061833
0.00591335
0.00559035
0.00524202
0.0048656
0.00445311
0.00400542
0.00354207
0.00316376
0.00292426
0.00279192
0.00274076
0.0027556
0.00280136
0.00286458
0.0028482
0.00258415
0.00211348
0.00161926
0.00137756
0.00161768
0.00255092
0.0036811
0.0045402
0.00466847
0.00555598
0.00619047
0.00655938
0.00670234
0.00667196
0.00650727
0.00624976
0.00592764
0.00557315
0.00519128
0.00476954
0.00430957
0.00384798
0.00347168
0.00322922
0.00309038
0.00302979
0.00303767
0.00308284
0.00314932
0.00311353
0.00283561
0.00235089
0.00182183
0.00151058
0.00168804
0.00260576
0.0038134
0.00479866
0.00485386
0.00571772
0.00635282
0.00674428
0.00691225
0.00690521
0.00676969
0.00653116
0.00621448
0.00585823
0.00547592
0.00505445
0.00458927
0.00413887
0.00377091
0.00352719
0.00338121
0.00331097
0.00330988
0.00335384
0.00341989
0.00336379
0.00307323
0.00257829
0.00202252
0.00164785
0.00177272
0.00265003
0.00390988
0.00500307
0.00498417
0.00582972
0.00647096
0.00688516
0.0070802
0.00709679
0.00698355
0.00676971
0.00645621
0.00610386
0.00572595
0.00531169
0.00485516
0.00441887
0.00406334
0.00381902
0.00366515
0.00358452
0.00357255
0.00361501
0.00367485
0.00359747
0.00329549
0.00279386
0.00221722
0.00178938
0.00186996
0.00268981
0.00397725
0.00515839
0.00504374
0.00589109
0.00654484
0.00698143
0.00720958
0.00725101
0.00715804
0.00696781
0.00667013
0.00631867
0.0059495
0.00554771
0.0051099
0.00469292
0.00435023
0.00410505
0.0039424
0.00385027
0.00382573
0.00386613
0.00391234
0.00381296
0.00350098
0.00299577
0.00240506
0.00193712
0.00196487
0.00273358
0.00402363
0.00527021
0.00502324
0.00589685
0.00657985
0.00704169
0.00730339
0.00737254
0.00729864
0.00713047
0.00686391
0.00651434
0.00615353
0.00576835
0.00535569
0.00496252
0.00463167
0.00438489
0.00421247
0.00410745
0.0040689
0.00410354
0.00412959
0.00400815
0.00368816
0.00318208
0.00258484
0.00208738
0.00205859
0.00278189
0.00405828
0.00534685
0.00492288
0.00584429
0.00657598
0.00707258
0.00736103
0.00746464
0.00741034
0.0072611
0.00701956
0.0066918
0.006344
0.00597785
0.00559461
0.00522424
0.00490625
0.00465716
0.00447396
0.00435413
0.004301
0.00432255
0.00432255
0.00418005
0.00385502
0.00335124
0.00275491
0.00223949
0.00216462
0.00283379
0.00408677
0.00539639
0.00475204
0.00573891
0.00653189
0.00707597
0.00739369
0.00752873
0.00749853
0.00736787
0.00715312
0.00685394
0.00652398
0.00617955
0.00582743
0.00547816
0.00517169
0.00491916
0.00472388
0.00458669
0.00451838
0.00451734
0.00448554
0.00432437
0.00399848
0.00350228
0.0029124
0.00239126
0.0022807
0.00289106
0.00411304
0.00542438
0.00452818
0.00559051
0.0064527
0.00705094
0.00740571
0.00756854
0.00756618
0.00745597
0.0072668
0.0070016
0.00669341
0.00637352
0.00604578
0.0057233
0.00542385
0.00516578
0.00495652
0.0047991
0.00471285
0.00467928
0.00461195
0.00443517
0.00411391
0.00363283
0.00305495
0.00253878
0.0024016
0.00295702
0.00413994
0.00544016
0.00427421
0.00541203
0.00634511
0.00700088
0.00739782
0.00758699
0.00761645
0.00752804
0.00736387
0.00713102
0.00684909
0.0065543
0.00625311
0.00594946
0.00565425
0.00538776
0.00516173
0.00498183
0.00486812
0.00479584
0.00469297
0.0045048
0.00419499
0.00373827
0.00317895
0.0026784
0.0025177
0.00303896
0.00416841
0.00544608
0.00401488
0.00521816
0.00621705
0.00692891
0.00736824
0.00758913
0.00764399
0.00758267
0.00744454
0.00724373
0.00699268
0.00671026
0.00643357
0.00614394
0.00584868
0.00556967
0.00532346
0.00511578
0.00496588
0.00485181
0.00471758
0.00452439
0.00423426
0.00381238
0.00327943
0.00280308
0.00262455
0.00313315
0.00419803
0.00544406
0.00377263
0.00502422
0.00607695
0.00683777
0.00731697
0.00757216
0.00765329
0.00761212
0.00750828
0.00734093
0.00709864
0.00683005
0.00656435
0.0062864
0.00598488
0.00568836
0.00541804
0.00517452
0.00498572
0.0048316
0.00467528
0.00448576
0.00422466
0.0038487
0.00335118
0.00290582
0.00272134
0.00322589
0.00422603
0.00543384
0.0035669
0.00484567
0.00593274
0.00672862
0.0072414
0.0075288
0.00763737
0.00760425
0.00752272
0.00736616
0.00714556
0.00688841
0.00662029
0.00634258
0.00603234
0.00571488
0.00541243
0.0051359
0.00491212
0.00472782
0.00456113
0.00438522
0.00416216
0.00384219
0.00339085
0.00298227
0.00280268
0.00330532
0.00424751
0.00541016
0.00341695
0.00469211
0.00578533
0.0066029
0.00713469
0.007405
0.00748841
0.00751424
0.00744999
0.0072994
0.00709251
0.00684604
0.00656879
0.0062749
0.00595598
0.00561928
0.00528754
0.00499086
0.00474522
0.00454723
0.00438286
0.00422926
0.00405037
0.00379263
0.00339855
0.00302922
0.00286976
0.00336317
0.00425445
0.00535929
0.00332377
0.00453983
0.00558979
0.00635502
0.00682154
0.00709214
0.0072588
0.00730341
0.0072409
0.00709075
0.00689254
0.00665503
0.00637653
0.00606785
0.00573165
0.00539063
0.00505681
0.0047602
0.0045136
0.00431901
0.00416744
0.00404039
0.0039055
0.0037097
0.00337938
0.00304652
0.00291478
0.00338888
0.00421126
0.00525724
0.00319819
0.00431303
0.00522953
0.00590332
0.00637457
0.00670286
0.00687297
0.00691297
0.00684196
0.00669953
0.00651653
0.00629528
0.0060322
0.00572974
0.00539303
0.00506976
0.00476883
0.00449927
0.0042713
0.00409349
0.00396015
0.0038575
0.00375853
0.00361512
0.00334748
0.00304163
0.00292355
0.0033534
0.00407889
0.00503292
0.00306909
0.0039591
0.00476011
0.0053864
0.00583593
0.00612854
0.00629042
0.00631866
0.00625579
0.00613916
0.00598985
0.00580525
0.00558132
0.00531966
0.00502423
0.00474526
0.00449972
0.00427321
0.00407759
0.00392292
0.00380782
0.0037231
0.0036476
0.00354066
0.00332763
0.00303672
0.00289807
0.00323429
0.00384008
0.0046183
0.00294977
0.00364094
0.00425967
0.00476165
0.00514318
0.00540179
0.00555336
0.00560423
0.00558009
0.00551561
0.00542319
0.00529786
0.0051361
0.00494129
0.00471735
0.00449887
0.00430829
0.0041201
0.00395746
0.00383194
0.0037389
0.00366915
0.00360715
0.00352162
0.00335199
0.00307231
0.00287929
0.00305758
0.00353812
0.00407921
0.00277257
0.00326785
0.00373205
0.00414169
0.00446078
0.0046993
0.00486562
0.00496284
0.00499557
0.00499344
0.00496336
0.00490121
0.004804
0.00467621
0.00451954
0.00434849
0.00419185
0.00404229
0.00391595
0.00381509
0.00373981
0.00368413
0.00363565
0.00356876
0.00343647
0.00319314
0.00295208
0.00295296
0.0032642
0.00361664
0.00283169
0.00313953
0.00348635
0.00380337
0.00406776
0.0042821
0.00444992
0.00457173
0.00464026
0.00467701
0.00468555
0.00466355
0.00460585
0.00451517
0.00438495