/*--------------------------------*- C++ -*----------------------------------*\
| =========                 |                                                 |
| \\      /  F ield         | OpenFOAM: The Open Source CFD Toolbox           |
|  \\    /   O peration     | Version:  5.0                                   |
|   \\  /    A nd           | Web:      www.OpenFOAM.org                      |
|    \\/     M anipulation  |                                                 |
\*---------------------------------------------------------------------------*/
FoamFile
{
    version     2.0;
    format      ascii;
    class       volScalarField;
    location    "750/air";
    object      epsilon;
}
// * * * * * * * * * * * * * * * * * * * * * * * * * * * * * * * * * * * * * //

dimensions      [0 2 -3 0 0 0 0];

internalField   nonuniform List<scalar> 
243000
(
5.75229
6.9652
7.669
8.00711
8.05692
7.88616
7.55951
7.13713
6.66663
6.19167
5.74818
5.38242
5.11312
4.93716
4.77158
4.54654
4.2431
3.8861
3.50535
3.12417
2.76444
2.43064
2.064
1.61161
1.06987
1.16408
1.77367
1.95782
2.08277
2.16226
3.14052
3.83139
4.07314
4.08223
3.9644
3.76234
3.5111
3.23879
2.96526
2.7058
2.47176
2.27609
2.11301
1.97046
1.82297
1.66591
1.50753
1.36035
1.22778
1.10988
1.00721
0.916606
0.816931
0.68368
0.50385
0.520618
0.852904
1.08818
1.26049
1.41986
4.07891
5.00643
5.39575
5.43872
5.30322
5.05244
4.73315
4.3834
4.02877
3.68982
3.3814
3.11894
2.89365
2.68679
2.46479
2.22669
1.99043
1.7768
1.59029
1.42902
1.28977
1.1648
1.03688
0.880958
0.674709
0.592715
0.960737
1.33805
1.61991
1.89634
4.7083
5.81746
6.35611
6.46034
6.34251
6.08323
5.7368
5.34754
4.94619
4.55807
4.20105
3.89269
3.62344
3.36796
3.08485
2.77617
2.46844
2.19102
1.95063
1.74469
1.5671
1.40547
1.24456
1.06388
0.83528
0.679577
0.969903
1.48965
1.88291
2.27539
5.11135
6.36608
7.02295
7.203
7.1252
6.88475
6.5408
6.14114
5.72016
5.30718
4.92272
4.58616
4.28844
3.99802
3.66589
3.29793
2.92819
2.59317
2.3026
2.05395
1.83908
1.64194
1.44712
1.2407
0.992422
0.782152
0.924994
1.57307
2.07315
2.56837
5.36515
6.67391
7.45705
7.71723
7.69288
7.48964
7.16933
6.78079
6.3609
5.94221
5.54734
5.19757
4.88435
4.57029
4.20003
3.78329
3.36203
2.97675
2.6412
2.35331
2.1037
1.87354
1.64604
1.41421
1.14796
0.893798
0.887515
1.59769
2.20918
2.80141
5.49936
6.80375
7.68608
8.04387
8.08175
7.92787
7.64598
7.28438
6.88117
6.47156
6.08006
5.72966
5.41149
5.08345
4.68436
4.22896
3.76585
3.33799
2.96323
2.64033
2.35915
2.09895
1.84114
1.58518
1.30188
1.01373
0.889946
1.56486
2.29203
2.97349
5.53172
6.80224
7.74218
8.21113
8.32171
8.2257
7.99223
7.6688
7.29396
6.90492
6.5278
6.18691
5.87239
5.53802
5.11852
4.63386
4.13778
3.67508
3.26692
2.91347
2.6042
2.3171
2.03185
1.75356
1.45364
1.13964
0.943981
1.47824
2.33239
3.08911
5.48945
6.71977
7.68769
8.23671
8.43527
8.40502
8.22705
7.9497
7.61161
7.25189
6.89791
6.57451
6.27032
5.93575
5.50337
4.99816
4.47709
3.98741
3.55147
3.17187
2.83809
2.52708
2.21762
1.91911
1.60313
1.26864
1.01742
1.39181
2.34055
3.15599
5.38846
6.57522
7.55634
8.16411
8.44167
8.48415
8.36703
8.14091
7.84546
7.52151
7.19745
6.89759
6.60881
6.27904
5.84061
5.32276
4.78423
4.27463
3.81648
3.4151
3.06029
2.72841
2.39804
2.08159
1.75046
1.39973
1.10338
1.32022
2.31937
3.18183
5.23616
6.38134
7.3653
8.01866
8.3713
8.48268
8.42536
8.25413
8.00561
7.72207
7.43286
7.16126
6.89137
6.57055
6.13219
5.6089
5.05995
4.53659
4.06209
3.64308
3.27069
2.92085
2.5729
2.24085
1.8958
1.53027
1.19632
1.26716
2.27697
3.17572
5.04157
6.14718
7.12725
7.81838
8.23613
8.41484
8.42253
8.3017
8.10059
7.86102
7.61012
7.36988
7.12193
6.81289
6.38019
5.858
5.30519
4.77388
4.28842
3.85607
3.4694
3.10452
2.74217
2.39681
2.0392
1.66004
1.29438
1.23532
2.22129
3.14902
4.83042
5.88139
6.85249
7.57511
8.04797
8.29357
8.36127
8.29937
8.1417
7.94552
7.73468
7.52771
7.30373
7.00927
6.58689
6.07165
5.52104
4.98725
4.49561
4.05453
3.65692
3.27978
2.90594
2.54942
2.18042
1.7893
1.4005
1.22725
2.15586
3.11121
4.61941
5.60419
6.5506
7.29835
7.81938
8.12653
8.25255
8.2469
8.14168
7.98351
7.81216
7.63896
7.43989
7.16256
6.75467
6.25165
5.70878
5.17771
4.68438
4.23859
3.83372
3.44698
3.06436
2.69852
2.31976
1.91783
1.5091
1.25562
2.07177
3.06273
4.4037
5.34086
6.23462
6.99713
7.55905
7.92123
8.10492
8.15245
8.09753
7.98576
7.84783
7.70764
7.53391
7.27578
6.886
6.39989
5.86988
5.34633
4.8556
4.40874
4.00005
3.6066
3.21775
2.84477
2.4577
2.04576
1.61997
1.31254
1.97257
3.00567
4.17995
5.08579
5.94213
6.68127
7.27466
7.68466
7.92493
8.02204
8.01693
7.9486
7.85001
7.73783
7.58936
7.35199
6.98352
6.51852
6.00603
5.49453
5.01042
4.566
4.15676
3.75945
3.36664
2.98865
2.59468
2.17343
1.73239
1.38003
1.88261
2.94384
3.94604
4.83509
5.66467
6.37672
6.97407
7.42522
7.71695
7.86169
7.90334
7.87853
7.81711
7.73587
7.60994
7.39434
7.05011
6.60998
6.11921
5.62392
5.15021
4.71168
4.30514
3.90678
3.51195
3.13082
2.73141
2.30151
1.84634
1.45704
1.81002
2.88018
3.70002
4.58606
5.39827
6.09133
6.66666
7.14943
7.4863
7.67675
7.76114
7.77876
7.7537
7.70179
7.59972
7.40713
7.08903
6.67713
6.21184
5.73658
5.27679
4.84745
4.44669
4.05019
3.65491
3.27231
2.86886
2.43097
1.96231
1.54314
1.75921
2.82057
3.4388
4.33701
5.14054
5.82101
6.38156
6.86383
7.2381
7.4722
7.59559
7.65264
7.66266
7.64003
7.56092
7.39264
7.10343
6.72288
6.28652
5.83485
5.39228
4.97533
4.5831
4.1914
3.79696
3.41433
3.00814
2.56295
2.08099
1.63249
1.72933
2.76732
3.16178
4.08745
4.89044
5.56329
6.11326
6.57524
6.97702
7.25225
7.41097
7.50414
7.54714
7.55289
7.49755
7.35465
7.09648
6.75013
6.346
5.92138
5.49921
5.09737
4.71597
4.33176
3.93948
3.55813
3.15045
2.69879
2.20328
1.72611
1.72169
2.71776
2.86926
3.83779
4.64796
5.31699
5.85923
6.30752
6.70756
7.01926
7.21013
7.33588
7.4097
7.44222
7.4119
7.29582
7.07078
6.76136
6.39265
5.99842
5.59964
5.21523
4.84655
4.47203
4.08355
3.70485
3.29696
2.83947
2.33017
1.82511
1.72913
2.67144
2.54463
3.58971
4.41455
5.08216
5.61838
6.05615
6.43509
6.77339
6.99306
7.1488
7.25103
7.30885
7.30425
7.21689
7.02725
6.75724
6.42736
6.06663
5.69427
5.32928
4.97489
4.61149
4.22964
3.85547
3.44917
2.98622
2.46288
1.93003
1.74777
2.62964
2.22799
3.34784
4.19289
4.85971
5.39024
5.81883
6.18223
6.5169
6.75987
6.94077
7.06847
7.15029
7.17119
7.11474
6.96286
6.73536
6.44753
6.12313
5.77992
5.43658
5.09782
4.74657
4.37759
4.01134
3.60888
3.14097
2.603
2.04159
1.78079
2.59476
1.99061
3.11678
3.98699
4.65071
5.17352
5.59341
5.94798
6.27026
6.51057
6.70826
6.85568
6.9585
7.00359
6.97936
6.86687
6.68444
6.44024
6.1578
5.84707
5.52885
5.2083
4.8721
4.52942
4.17719
3.78112
3.30891
2.75408
2.16238
1.8303
2.57176
1.89394
2.90321
3.80205
4.45785
4.97186
5.38612
5.73475
6.05013
6.2823
6.47044
6.61637
6.72811
6.79383
6.80052
6.7272
6.59084
6.39431
6.15896
5.8966
5.61684
5.32745
5.02437
4.70897
4.37166
3.98166
3.50416
2.92768
2.30009
1.90041
2.57432
1.92112
2.75036
3.65307
4.29609
4.79937
5.2071
5.55219
5.86587
6.09952
6.28834
6.44202
6.56535
6.65
6.68669
6.66066
6.57804
6.44152
6.26174
6.04628
5.80428
5.54384
5.26538
4.96749
4.63791
4.24656
3.75539
3.1495
2.47347
2.00855
2.61336
2.06562
2.70617
3.57145
4.19734
4.69282
5.10058
5.45029
5.77496
6.02887
6.23738
6.41759
6.57113
6.69477
6.77883
6.81132
6.79083
6.71691
6.59261
6.4217
6.21257
5.97304
5.70599
5.40913
5.07044
4.66061
4.13642
3.47774
2.72838
2.19154
2.72738
2.40284
2.93082
3.72781
4.35063
4.8604
5.29183
5.67563
6.04449
6.35989
6.62839
6.87319
7.0955
7.29651
7.46101
7.57328
7.62264
7.60805
7.52544
7.37749
7.1747
6.92726
6.63894
6.3071
5.92181
5.45636
4.86606
4.1108
3.23735
2.60047
3.0695
3.88668
4.34922
5.17007
5.86851
6.47084
7.00193
7.48556
7.95601
8.40237
8.80016
9.16537
9.50434
9.84403
10.1294
10.3278
10.4287
10.4361
10.3435
10.1569
9.8956
9.57697
9.20539
8.76442
8.25867
7.67243
6.9623
6.0794
5.027
4.22559
4.60103
13.6125
14.087
14.923
15.6363
16.2612
16.7146
17.0105
17.2712
17.5618
17.8792
18.1393
18.3918
18.8096
19.1064
19.2427
19.2799
19.2251
19.0852
18.8633
18.6126
18.3574
18.0928
17.6611
17.1955
16.7236
16.1789
15.5401
14.6393
13.9251
14.1468
9.82643
13.125
14.9533
16.0887
16.5551
16.4749
15.9734
15.1812
14.2092
13.1553
12.0927
11.0955
10.2018
9.40899
8.53173
7.47709
6.29189
5.09582
3.98801
3.0236
2.27057
1.76248
1.38574
1.09382
1.1338
1.63534
2.18594
2.33054
2.41451
2.77287
6.25496
7.59674
8.62423
9.31295
9.64533
9.66987
9.43008
8.99329
8.42799
7.7916
7.1326
6.48584
5.87612
5.29544
4.66309
3.99457
3.33777
2.74438
2.23824
1.81565
1.45463
1.15706
0.926019
0.775688
0.785525
0.836618
1.04423
1.26616
1.54061
2.2267
5.44395
6.54356
7.37711
7.96282
8.28114
8.36325
8.23063
7.92405
7.49411
6.98542
6.44006
5.89334
5.36506
4.84653
4.26218
3.63999
3.04579
2.53119
2.10901
1.76552
1.46527
1.21332
1.00524
0.837676
0.765341
0.784822
0.99869
1.30252
1.61037
2.24613
4.99853
6.04512
6.81158
7.3692
7.70147
7.83138
7.77481
7.55546
7.21389
6.78337
6.30693
5.83209
5.36767
4.88244
4.31332
3.6962
3.10777
2.60443
2.19819
1.87218
1.5907
1.35191
1.1483
0.959522
0.813935
0.777114
1.00819
1.3734
1.70572
2.26594
4.66449
5.65978
6.40941
6.96716
7.32498
7.49994
7.50741
7.35927
7.08778
6.72279
6.31383
5.89039
5.47209
5.01784
4.45694
3.83841
3.24552
2.73931
2.33301
2.00959
1.73455
1.50323
1.30186
1.09938
0.899741
0.797566
0.99073
1.42837
1.78977
2.28492
4.37604
5.3137
6.06059
6.62682
7.01327
7.23099
7.29271
7.2078
6.99795
6.6958
6.33858
5.96653
5.59077
5.16203
4.60765
3.98836
3.39098
2.8804
2.47133
2.14722
1.8764
1.65211
1.45403
1.24485
1.01067
0.849098
0.955075
1.46128
1.85833
2.30783
4.11078
4.98918
5.73356
6.31169
6.7257
6.98272
7.09163
7.0633
6.90984
6.66379
6.35633
6.03169
5.69507
5.28855
4.74224
4.12404
3.52501
3.0121
2.60132
2.27704
2.01113
1.79481
1.60178
1.39076
1.13711
0.926341
0.94386
1.47165
1.91108
2.33561
3.8651
4.68664
5.4213
6.00949
6.44982
6.74207
6.89257
6.91357
6.81169
6.61352
6.36016
6.07572
5.7754
5.38874
4.85272
4.23825
3.64156
3.12967
2.71946
2.39719
2.13784
1.93065
1.74452
1.53518
1.27205
1.02252
0.978641
1.45275
1.94963
2.36546
3.64113
4.40933
5.12787
5.72053
6.18212
6.50557
6.69288
6.75543
6.70047
6.54816
6.34136
6.09885
5.82935
5.46035
4.93562
4.32938
3.73933
3.2321
2.8254
2.50762
2.25668
2.05992
1.88243
1.67748
1.41128
1.13438
1.03725
1.411
1.97711
2.3942
3.44001
4.1583
4.85691
5.44777
5.92401
6.27303
6.49229
6.59007
6.57682
6.4674
6.29949
6.10281
5.85703
5.50368
4.99249
4.39843
3.81898
3.32003
2.91982
2.60899
2.36815
2.18335
2.01613
1.8178
1.55256
1.25734
1.10445
1.3713
1.99583
2.41953
3.26393
3.93413
4.60984
5.19381
5.67747
6.04589
6.29185
6.41988
6.44211
6.37164
6.24133
6.07915
5.86409
5.52241
5.02594
4.44742
3.88212
3.39464
3.00375
2.70229
2.47319
2.30184
2.14651
1.95674
1.69503
1.38847
1.18235
1.34627
2.00764
2.44037
3.12009
3.73989
4.38593
4.95833
5.44345
5.82562
6.09312
6.247
6.29847
6.26299
6.16757
6.03519
5.84393
5.52241
5.03875
4.4789
3.93085
3.45763
3.07856
2.78881
2.57293
2.41658
2.27485
2.09541
1.83883
1.52587
1.27022
1.34297
2.01469
2.45773
3.02129
3.5808
4.18589
4.74132
5.22219
5.61306
5.89735
6.07294
6.14893
6.14385
6.07955
5.97434
5.80229
5.49693
5.03434
4.49601
3.96769
3.51098
3.14597
2.87008
2.66883
2.52904
2.4028
2.23534
1.98493
1.66854
1.36787
1.36228
2.01848
2.47284
2.96003
3.46548
4.01406
4.54304
5.01391
5.40857
5.70549
5.8991
5.99647
6.0167
5.98003
5.89913
5.74409
5.4553
5.01442
4.4997
3.99509
3.55706
3.20808
2.94777
2.76256
2.64092
2.53233
2.37868
2.13525
1.81578
1.47819
1.40209
2.01918
2.48614
2.92057
3.39262
3.87613
4.36493
4.82016
5.21249
5.51821
5.72666
5.84289
5.8847
5.8723
5.81314
5.67376
5.4023
4.98473
4.49589
4.01546
3.59875
3.26759
3.02415
2.85641
2.75462
2.66608
2.52843
2.2928
1.96951
1.60173
1.46128
2.01623
2.49796
2.89115
3.34633
3.77754
4.21057
4.64219
5.02612
5.33644
5.55698
5.69006
5.75105
5.76028
5.721
5.59674
5.34354
4.95084
4.49013
4.03441
3.64048
3.3284
3.10253
2.95415
2.87377
2.8078
2.68868
2.46184
2.13373
1.73979
1.536
2.00967
2.50794
2.86133
3.31539
3.70484
4.0859
4.48075
4.85267
5.16261
5.39226
5.54058
5.61993
5.64874
5.62866
5.52007
5.28616
4.91998
4.4875
4.06014
3.68867
3.39622
3.18809
3.06117
3.00388
2.96304
2.86514
2.64828
2.31391
1.89525
1.62889
1.99911
2.51527
2.82181
3.28852
3.64736
3.98767
4.33924
4.69465
5.00083
5.23686
5.39901
5.49664
5.54471
5.54413
5.45252
5.24008
4.90227
4.5012
4.1012
3.75254
3.47951
3.28907
3.18576
3.1536
3.14013
3.06615
2.8602
2.51678
2.07071
1.74071
2.00732
2.52091
2.76063
3.25853
3.59779
3.90865
4.22618
4.55425
4.85716
5.09759
5.27304
5.38978
5.45879
5.47879
5.40689
5.21964
4.91264
4.54417
4.17241
3.84671
3.59145
3.42011
3.34128
3.33706
3.3519
3.3042
3.10921
2.75154
2.27073
1.86673
2.03148
2.5258
2.66872
3.22056
3.55181
3.84417
4.1378
4.44118
4.73755
4.98452
5.17458
5.31289
5.4079
5.45151
5.40735
5.24732
4.9746
4.64087
4.29829
3.9955
3.75672
3.60616
3.55229
3.57704
3.6201
3.5992
3.41264
3.03159
2.49991
2.00757
2.07172
2.53075
2.55144
3.17283
3.50793
3.79229
4.07329
4.36247
4.65416
4.91352
5.12366
5.28829
5.4161
5.49438
5.48133
5.3595
5.12817
4.83355
4.52217
4.24273
4.02097
3.89166
3.86283
3.91547
3.98356
3.98445
3.79804
3.37695
2.76979
2.16908
2.12218
2.53791
2.42582
3.11546
3.46719
3.75436
4.03531
4.32318
4.61662
4.89567
5.14242
5.35804
5.53432
5.6599
5.69521
5.62277
5.44763
5.2021
4.92734
4.67476
4.47763
4.36555
4.35805
4.43116
4.51315
4.51895
4.3117
3.82008
3.09745
2.35784
2.18101
2.55237
2.32154
3.05262
3.43522
3.73676
4.03215
4.34988
4.68585
5.02135
5.32036
5.60009
5.85082
6.05282
6.16968
6.1769
6.08479
5.91274
5.70112
5.49167
5.31726
5.21586
5.21222
5.28035
5.34609
5.3139
5.03731
4.41739
3.51325
2.57903
2.26786
2.58704
2.27753
3.00169
3.42674
3.78092
4.14687
4.53615
4.95321
5.39131
5.79308
6.18577
6.56329
6.90027
7.16369
7.32492
7.39058
7.3623
7.25867
7.1143
6.96224
6.84814
6.79724
6.79018
6.75834
6.59083
6.13801
5.27778
4.07858
2.85983
2.40916
2.66981
2.36056
3.00236
3.52981
3.9998
4.49316
5.02439
5.60479
6.2524
6.86459
7.48619
8.11431
8.72126
9.27433
9.73683
10.114
10.3558
10.4612
10.4445
10.3097
10.1157
9.89671
9.648
9.3172
8.80112
7.94961
6.6344
4.9391
3.28016
2.66435
2.87969
2.67609
3.26192
3.96227
4.66156
5.41162
6.23832
7.15798
8.22259
9.27596
10.3639
11.4896
12.6297
13.7583
14.8172
15.8169
16.5977
17.104
17.3092
17.165
16.735
16.0852
15.2366
14.1777
12.8525
11.163
9.01188
6.46958
4.06804
3.21437
3.42513
3.66637
4.31239
5.43713
6.65669
7.98162
9.44799
11.084
12.9931
14.9622
16.9744
19.0523
21.1516
23.275
25.3754
27.4466
29.1186
30.2469
30.697
30.3455
29.3018
27.7128
25.6481
23.1702
20.3256
17.1192
13.5471
9.67007
5.98727
4.69269
4.94728
7.24665
8.29868
10.5011
12.9079
15.4656
18.2064
21.1783
24.4534
27.8606
31.2861
34.7461
38.1638
41.5582
44.8509
47.9197
50.22
51.4582
51.45
50.1073
47.7412
44.6622
41.0301
36.9477
32.4783
27.6128
22.4107
16.913
11.4497
9.26344
9.64862
19.0635
21.2939
25.4442
29.6832
33.8515
38.0071
42.2882
46.6587
51.1045
55.3994
59.5458
63.3699
66.6353
69.1624
70.5423
70.4346
68.5479
65.5256
61.8232
57.7744
53.7247
49.8729
46.2789
42.8587
39.3536
35.1708
30.2878
24.8432
21.9571
22.6928
35.9401
39.4519
43.7184
48.0384
52.2776
56.2801
59.999
63.5091
66.788
69.5089
71.6522
73.0023
73.2064
71.8807
68.6718
64.4878
60.2237
55.7257
51.421
47.607
44.4086
41.8759
40.0368
38.9059
38.2722
37.8349
37.2327
36.5048
36.3404
37.5394
13.5136
18.8308
21.5853
23.4773
24.4431
24.5859
24.0499
23.0036
21.5914
19.9439
18.1558
16.3263
14.5015
12.6778
10.6366
8.43398
6.31535
4.53954
3.17276
2.18477
1.71983
0.306711
1.29339
0.256758
1.41593
1.98772
2.52301
2.654
2.84235
3.87639
7.74568
9.45412
10.658
11.5706
12.121
12.3253
12.201
11.8001
11.187
10.4231
9.56199
8.64081
7.69095
6.6823
5.60839
4.56321
3.6525
2.91724
2.3142
1.7815
1.27436
0.857708
0.636401
0.563237
0.771484
0.893007
1.1304
1.38049
1.8522
2.979
6.79781
8.04455
8.96267
9.62767
10.0354
10.211
10.1631
9.90504
9.47353
8.90738
8.24757
7.52613
6.77226
5.94316
5.03307
4.16424
3.42426
2.83486
2.34399
1.88742
1.40868
1.01649
0.720505
0.602996
0.673524
0.765555
1.00568
1.34726
1.86713
2.91692
6.30301
7.41243
8.2512
8.85224
9.23172
9.41964
9.42728
9.25434
8.92449
8.46454
7.90729
7.28387
6.63614
5.89123
5.03824
4.21198
3.50556
2.94309
2.47969
2.0412
1.58364
1.1837
0.864004
0.684429
0.663747
0.727673
0.992268
1.39361
1.93018
2.91185
5.89002
6.9177
7.73587
8.33363
8.73065
8.955
9.01706
8.91637
8.66504
8.28257
7.7972
7.26514
6.68717
5.98926
5.16232
4.34918
3.64631
3.08418
2.62648
2.19718
1.7584
1.35528
1.02
0.794692
0.696577
0.713636
0.981767
1.43765
1.99129
2.90201
5.48392
6.4486
7.26558
7.88293
8.31708
8.58921
8.70657
8.67346
8.49117
8.17502
7.76251
7.29533
6.77196
6.10897
5.2995
4.49237
3.78784
3.22189
2.76578
2.34669
1.92675
1.5259
1.18061
0.922848
0.762825
0.730583
0.955869
1.46701
2.03967
2.87159
5.07262
5.98739
6.80563
7.45279
7.93018
8.254
8.42696
8.45655
8.33881
8.08468
7.74001
7.32666
6.84985
6.21447
5.42068
4.62026
3.91564
3.34771
2.89414
2.48816
2.08788
1.69397
1.34272
1.0613
0.855884
0.777219
0.935653
1.48202
2.07538
2.83166
4.66538
5.53996
6.35608
7.03119
7.5533
7.9279
8.15521
8.24107
8.18476
7.99001
7.70448
7.34492
6.90549
6.29513
5.51864
4.72821
4.02711
3.46066
3.01203
2.62185
2.24216
1.85936
1.50436
1.20542
0.967786
0.848443
0.947007
1.48577
2.10107
2.79167
4.28207
5.11782
5.92667
6.62185
7.18333
7.60558
7.8835
8.02019
8.02076
7.88261
7.64754
7.34742
6.93885
6.34961
5.59389
4.81733
4.1236
3.56213
3.12123
2.74856
2.39089
2.02253
1.66683
1.35383
1.09254
0.935168
0.982062
1.47956
2.11977
2.75839
3.93492
4.73015
5.52726
6.23167
6.8237
7.28718
7.61083
7.79406
7.84383
7.75945
7.57458
7.32273
6.95133
6.38163
5.65006
4.89079
4.2078
3.65441
3.22382
2.86953
2.53584
2.18452
1.83123
1.50697
1.22749
1.03443
1.03408
1.46634
2.13273
2.73235
3.62987
4.38383
5.16297
5.86656
6.47927
6.97565
7.33877
7.56336
7.65575
7.62159
7.48557
7.27381
6.9432
6.39749
5.69171
4.95241
4.28294
3.74016
3.3221
2.98694
2.67912
2.34685
1.99937
1.66643
1.37116
1.14565
1.09632
1.46136
2.1411
2.7122
3.37137
4.08384
4.83558
5.53122
6.15409
6.67447
7.06975
7.3301
7.45968
7.47108
7.38204
7.20881
6.91251
6.40138
5.72324
5.00618
4.35263
3.82265
3.41888
3.10412
2.82355
2.51222
2.17341
1.83425
1.52229
1.26798
1.1664
1.4695
2.14687
2.69627
3.1705
3.83181
4.54863
5.23057
5.85138
6.38654
6.80647
7.09691
7.25989
7.31053
7.26676
7.13207
6.86868
6.39521
5.74887
5.05647
4.42112
3.9059
3.51787
3.22614
2.97327
2.68473
2.35691
2.01313
1.68346
1.40142
1.24938
1.49099
2.15247
2.68346
3.01558
3.63432
4.30276
4.96239
5.57384
6.11458
6.5517
6.86678
7.0597
7.14515
7.14438
7.04889
6.82017
6.3848
5.77392
5.10864
4.49381
3.99541
3.62424
3.35815
3.13399
2.86998
2.55522
2.20708
1.85851
1.54696
1.34689
1.52799
2.16085
2.67318
2.89455
3.48224
4.10301
4.72702
5.3267
5.862
6.30869
6.64321
6.86301
6.98162
7.0203
6.96656
6.77452
6.38165
5.80591
5.1701
4.57831
4.09899
3.74569
3.50893
3.31385
3.07576
2.77586
2.42337
2.05327
1.70799
1.45848
1.58106
2.173
2.66839
2.79844
3.3667
3.94517
4.52755
5.10672
5.63337
6.08203
6.43112
6.67539
6.82666
6.90355
6.8934
6.74048
6.39303
5.85474
5.25165
4.68597
4.2282
3.89568
3.69152
3.5247
3.31332
3.02943
2.67208
2.27558
1.88878
1.58277
1.64896
2.18945
2.67168
2.72033
3.27988
3.82206
4.36602
4.91569
5.43194
5.87846
6.23797
6.50499
6.68959
6.80696
6.84173
6.73766
6.42954
5.93512
5.36978
4.83451
4.4011
4.09823
3.92586
3.78498
3.59922
3.33111
2.96707
2.53677
2.09643
1.72349
1.73084
2.21029
2.67882
2.65485
3.2153
3.72732
4.23778
4.75783
5.2613
5.70472
6.07474
6.36406
6.5842
6.74802
6.83074
6.77449
6.51544
6.07087
5.55069
5.05228
4.64735
4.38534
4.24229
4.12294
3.95897
3.70353
3.32878
2.85326
2.34022
1.88811
1.82453
2.23862
2.68969
2.59724
3.16753
3.65616
4.13942
4.63515
5.12374
5.57124
5.95521
6.27069
6.53388
6.74323
6.88951
6.88486
6.68381
6.30021
5.83704
5.38512
5.02325
4.80647
4.68836
4.58315
4.43287
4.18162
3.78659
3.24821
2.63449
2.08248
1.93167
2.27669
2.70487
2.54353
3.13277
3.60567
4.06928
4.54814
5.02827
5.48072
5.88855
6.23515
6.55567
6.8423
7.0575
7.12085
6.9886
6.68643
6.3006
5.91264
5.62069
5.44486
5.34082
5.23889
5.08646
4.82156
4.38593
3.75565
3.00077
2.31241
2.05833
2.32727
2.72625
2.49644
3.11074
3.57609
4.02796
4.49975
4.98122
5.4492
5.8974
6.33123
6.72955
7.09974
7.40428
7.56382
7.52702
7.33861
7.06655
6.78979
6.57787
6.43808
6.33457
6.21595
6.03045
5.71536
5.19954
4.42929
3.47328
2.58859
2.20817
2.39497
2.7594
2.46368
3.1026
3.56537
4.01934
4.50179
5.0263
5.57815
6.11494
6.63246
7.13182
7.6206
8.0539
8.35473
8.47252
8.45708
8.37161
8.2499
8.13297
8.02355
7.90599
7.73305
7.45581
7.01991
6.34915
5.35787
4.10902
2.93419
2.38948
2.49048
2.8179
2.46373
3.11633
3.60837
4.11978
4.68389
5.29725
5.95616
6.6242
7.28033
7.93429
8.60377
9.23558
9.75917
10.1343
10.423
10.604
10.6891
10.7009
10.6318
10.469
10.1703
9.69361
9.00454
8.03998
6.69331
5.01044
3.40415
2.63388
2.65007
2.93144
2.56062
3.21964
3.81177
4.44073
5.14354
5.91152
6.74838
7.64406
8.53742
9.46174
10.4344
11.3924
12.2833
13.0638
13.8148
14.4033
14.8108
15.0209
14.9954
14.7214
14.1615
13.292
12.1203
10.6215
8.70286
6.37332
4.11871
3.02697
2.94103
3.18851
2.85178
3.56314
4.33751
5.19717
6.14873
7.19863
8.35436
9.64135
10.945
12.32
13.7888
15.278
16.7486
18.1732
19.6603
20.8909
21.7717
22.2508
22.2156
21.6822
20.6226
19.0472
17.0449
14.6627
11.8455
8.58262
5.36326
3.76205
3.53385
3.77568
3.63535
4.51673
5.66201
6.95699
8.38247
9.9485
11.6734
13.6175
15.619
17.73
19.9842
22.2978
24.6455
27.0137
29.5462
31.6128
32.9996
33.6729
33.3585
32.0448
30.0029
27.3815
24.2873
20.7737
16.8082
12.3713
7.81487
5.37136
4.90314
5.15755
5.92486
7.20056
9.1049
11.2428
13.5304
15.9892
18.6532
21.6051
24.6657
27.8386
31.1759
34.5769
38.0235
41.4665
45.016
47.5766
48.6517
48.0926
46.3354
43.7364
40.6345
37.1506
33.3039
29.0476
24.272
18.8713
12.941
9.24146
8.3202
8.61537
12.6757
14.7379
18.0119
21.5256
25.09
28.7601
32.601
36.6805
40.8899
45.1354
49.4714
53.7663
57.9396
61.7184
64.8581
65.2179
63.7168
60.9342
57.4319
53.5853
49.7482
46.0133
42.2917
38.3895
34.0013
28.7838
22.6762
18.1838
16.706
17.1941
28.1178
31.4859
36.3686
41.2821
45.905
50.3353
54.7578
59.1924
63.6924
68.0642
72.2989
76.1584
79.1214
80.3108
79.1082
75.2687
70.4859
65.2192
60.1288
55.5225
51.6553
48.5565
46.1041
44.0317
41.8913
39.0822
35.4148
32.2445
31.5063
33.0117
40.4451
44.9025
50.0879
55.415
60.5559
65.2063
69.615
73.4902
77.0623
80.1258
82.558
83.7678
83.1244
79.8995
74.5146
67.3936
60.5525
54.1612
48.7132
44.3993
41.2892
39.2943
38.3324
38.2263
38.6749
39.1386
39.2909
39.4568
40.5229
43.0179
17.7358
24.6784
28.0436
30.2779
31.6011
31.9601
31.4461
30.2208
28.4305
26.2186
23.6903
20.9649
18.0865
15.0595
11.7266
8.57809
6.10371
4.71034
4.03375
3.40737
2.07148
0.309334
1.2568
1.14576
1.65109
2.28783
2.86334
3.08286
3.34277
4.92168
9.89684
11.8677
13.0868
13.9531
14.557
14.8368
14.772
14.3817
13.7153
12.8222
11.7581
10.5595
9.25933
7.79997
6.30037
5.05164
4.13632
3.52093
2.95843
2.37602
1.53888
0.742488
0.526564
0.591254
0.784668
0.979303
1.23919
1.57679
2.26147
3.69866
8.84902
10.1118
10.9689
11.5504
11.9154
12.0828
12.0458
11.792
11.3367
10.7002
9.91961
9.02366
8.03634
6.88409
5.6981
4.73345
4.01555
3.45929
2.87979
2.23465
1.48608
0.823136
0.570819
0.543878
0.653652
0.803372
1.05869
1.51971
2.30772
3.66694
8.3355
9.39163
10.1593
10.6664
10.9745
11.1239
11.119
10.9412
10.5929
10.0795
9.42782
8.66403
7.81835
6.79747
5.71543
4.81797
4.12185
3.54635
2.93277
2.22711
1.51537
0.958395
0.696983
0.587092
0.631163
0.753966
1.04861
1.57856
2.38456
3.67592
7.89648
8.8533
9.59733
10.1035
10.4256
10.6032
10.6438
10.5324
10.2633
9.8331
9.26188
8.59816
7.85299
6.88994
5.85483
4.97439
4.26666
3.66629
3.04175
2.30463
1.62899
1.13302
0.851836
0.674136
0.652347
0.746108
1.05584
1.64362
2.45243
3.66519
7.42712
8.32343
9.0733
9.61213
9.98284
10.2141
10.3104
10.2654
10.0655
9.70215
9.20655
8.62214
7.93061
7.00804
6.00406
5.13128
4.41086
3.79463
3.17378
2.44183
1.78693
1.33321
1.02281
0.792331
0.705504
0.765663
1.06891
1.69665
2.50544
3.63107
6.91872
7.77267
8.54053
9.13072
9.56534
9.8625
10.0211
10.0421
9.90797
9.60621
9.18281
8.65479
8.0052
7.11272
6.13737
5.27454
4.54769
3.92654
3.32023
2.6155
1.97392
1.53843
1.20455
0.932023
0.787996
0.810558
1.08737
1.73736
2.54339
3.58269
6.38723
7.21113
7.99924
8.64753
9.15153
9.51803
9.74223
9.82499
9.75548
9.51362
9.15379
8.67732
8.06214
7.19592
6.2529
5.4051
4.67863
4.06144
3.47692
2.8137
2.18028
1.74263
1.38836
1.08507
0.892332
0.87342
1.11737
1.76954
2.56858
3.52657
5.85723
6.66
7.46711
8.16871
8.73932
9.1728
9.46091
9.60192
9.59408
9.4111
9.105
8.68461
8.09891
7.26101
6.35658
5.52844
4.8077
4.2009
3.64356
3.0288
2.40114
1.94723
1.5718
1.24528
1.01407
0.952276
1.1595
1.79589
2.58462
3.46628
5.35156
6.13809
6.96127
7.70511
8.33281
8.82727
9.1746
9.37073
9.41807
9.29368
9.0362
8.6696
8.11849
7.31668
6.45755
5.65128
4.93948
4.34721
3.82328
3.25541
2.63474
2.1574
1.75802
1.4095
1.14546
1.04118
1.21235
1.81915
2.59516
3.40652
4.88844
5.66294
6.49461
7.26615
7.9383
8.48446
8.88484
9.13169
9.22812
9.16057
8.95436
8.63398
8.12794
7.37469
6.5642
5.78025
5.07916
4.50362
4.01686
3.49254
2.88251
2.37974
1.95297
1.57843
1.28205
1.13848
1.27362
1.84261
2.6028
3.35175
4.48119
5.24414
6.07636
6.85959
7.56242
8.14935
8.59495
8.8871
9.02784
9.01504
8.86255
8.58712
8.13686
7.44523
6.68437
5.92198
5.23299
4.67577
4.22811
3.7429
3.14843
2.62178
2.16522
1.75752
1.42456
1.24193
1.3418
1.86835
2.6093
3.30842
4.13843
4.87961
5.7031
6.49283
7.21157
7.82775
8.30984
8.6416
8.82369
8.86169
8.76679
8.5412
8.15595
7.53664
6.82524
6.0839
5.40919
4.87243
4.46495
4.014
3.43991
2.89229
2.40305
1.95503
1.57923
1.35302
1.41752
1.89784
2.61541
3.27333
3.84852
4.57405
5.37741
6.16662
6.89219
7.52589
8.0355
8.40126
8.62276
8.70878
8.67579
8.50796
8.19502
7.65737
6.99475
6.27551
5.61911
5.1072
4.74137
4.31819
3.76957
3.20229
2.67772
2.18161
1.75351
1.47623
1.50179
1.93268
2.62207
3.24504
3.60371
4.31833
5.10098
5.87768
6.61038
7.2508
7.77907
8.17366
8.43341
8.5684
8.60121
8.5098
8.27284
7.81807
7.20375
6.51035
5.87849
5.40446
5.07552
4.67335
4.14676
3.56632
3.00413
2.45191
1.95638
1.61533
1.59391
1.97413
2.63034
3.22378
3.39733
4.10725
4.86913
5.6296
6.359
7.00878
7.54918
7.96831
8.26651
8.45491
8.55823
8.54788
8.40418
8.03258
7.46874
6.80885
6.21058
5.78929
5.4914
5.10458
4.59348
4.00672
3.40205
2.78275
2.20132
1.7782
1.69931
2.02431
2.64132
3.20997
3.22491
3.93646
4.67898
5.42214
6.14274
6.79995
7.35429
7.79773
8.13664
8.38514
8.56569
8.6531
8.6074
8.32114
7.81584
7.20292
6.65303
6.2993
6.02205
5.64759
5.14499
4.54788
3.89837
3.19769
2.50561
1.97198
1.82423
2.09003
2.65619
3.20457
3.08416
3.80159
4.5278
5.25452
5.96671
6.62667
7.20061
7.6775
8.06204
8.36907
8.65619
8.85141
8.9157
8.71503
8.2866
7.74234
7.27599
6.98811
6.72298
6.35565
5.85198
5.23582
4.53131
3.72919
2.89181
2.2079
1.96785
2.17256
2.68359
3.20892
2.97418
3.69986
4.41321
5.12666
5.83238
6.49716
7.09133
7.6072
8.04306
8.4645
8.8646
9.18207
9.37471
9.26985
8.94732
8.50495
8.16198
7.93215
7.67734
7.30998
6.79107
6.13946
5.35612
4.42221
3.39163
2.50313
2.13513
2.27602
2.72854
3.2269
2.89565
3.63014
4.33471
5.04013
5.74433
6.42254
7.04055
7.60702
8.1758
8.71224
9.24415
9.70901
10.055
10.0786
9.90379
9.62479
9.42652
9.24973
9.01285
8.63702
8.08124
7.36231
6.45289
5.33991
4.05427
2.88243
2.34002
2.40233
2.79674
3.26492
2.85184
3.59344
4.29489
4.99947
5.71014
6.4153
7.12567
7.82342
8.51064
9.18479
9.88443
10.5346
11.0712
11.2858
11.3377
11.2853
11.2341
11.136
10.93
10.5354
9.90883
9.04451
7.93605
6.57301
4.95324
3.39218
2.61218
2.57393
2.90007
3.33405
2.84295
3.59464
4.30414
5.0384
5.81699
6.63862
7.47425
8.31375
9.1494
10.0107
10.9338
11.8277
12.6214
13.1154
13.5226
13.7312
13.866
13.8922
13.7388
13.3126
12.5125
11.3791
9.96416
8.25085
6.19687
4.11258
3.00404
2.81244
3.05965
3.4592
2.92424
3.69802
4.47842
5.32328
6.22334
7.18479
8.17783
9.21957
10.2853
11.4118
12.6415
13.8693
15.0313
15.9321
16.7961
17.3566
17.754
17.967
17.837
17.2028
16.0941
14.5799
12.7354
10.5503
7.94839
5.184
3.60481
3.18706
3.35802
3.70306
3.20138
4.04257
4.95646
5.972
7.06906
8.24275
9.48408
10.827
12.2371
13.7454
15.4097
17.1073
18.7662
20.2273
21.7345
22.7429
23.4794
23.7333
23.3448
22.3562
20.8277
18.8349
16.4594
13.6988
10.4478
6.8486
4.6064
3.85782
3.91854
4.22728
3.81521
4.80976
5.99338
7.30588
8.72527
10.2487
11.8798
13.6696
15.5889
17.6403
19.9065
22.2457
24.5763
26.7788
29.1088
30.5762
31.3144
31.1351
30.2193
28.6974
26.6667
24.1779
21.2738
17.9322
14.0231
9.51519
6.4017
5.17466
5.05223
5.31533
5.29354
6.57992
8.22934
10.057
12.0086
14.0793
16.293
18.7173
21.3422
24.1211
27.1693
30.321
33.4715
36.5209
39.6519
40.9071
40.8005
39.6344
37.8639
35.6444
33.1112
30.2607
27.0481
23.3597
19.0161
13.7805
9.73244
7.86559
7.49378
7.66253
8.93556
10.7169
13.1666
15.8132
18.5379
21.3589
24.3269
27.5206
30.973
34.571
38.4661
42.4508
46.3535
49.9959
53.1599
52.4361
50.5068
47.7364
44.789
41.8068
38.9253
36.0585
33.0468
29.6239
25.4876
20.2422
15.6268
13.1624
12.614
12.8284
17.4144
19.9341
23.502
27.157
30.7128
34.2497
37.8745
41.6663
45.7324
49.9008
54.3234
58.7082
62.701
65.7128
66.3018
62.1342
57.57
52.8055
48.6172
45.0249
42.1006
39.6924
37.5637
35.2951
32.4813
28.5417
24.537
22.1564
21.8793
22.6758
31.3042
35.2806
39.9531
44.4866
48.5839
52.3665
56.0799
59.8147
63.7683
67.7337
71.7703
75.396
77.7875
77.3114
73.8602
65.5465
58.1433
51.5998
46.5084
42.6783
40.0319
38.4066
37.5484
37.1616
36.6971
35.4627
33.761
32.9038
33.7009
35.9317
38.5604
43.2335
48.5606
54.0193
59.1985
63.782
67.7314
71.2505
74.6878
77.7932
80.4742
81.9868
80.9973
76.463
69.1642
58.1326
49.3535
42.2301
37.0871
33.5129
31.3518
30.405
30.4968
31.4865
32.8918
34.1209
35.0886
36.3479
38.4692
41.911
22.4002
30.5815
34.595
37.1112
38.6185
39.151
38.6521
37.2497
35.0766
32.2718
28.9405
25.2107
21.1293
16.7082
12.1107
8.76936
7.5403
9.05808
9.73074
8.64173
5.53959
2.44674
1.31709
1.28694
1.86631
2.62908
3.29511
3.62515
3.81612
5.45639
12.2678
14.4252
15.7032
16.5557
17.1256
17.4482
17.4197
17.0226
16.2915
15.259
13.9811
12.4804
10.7916
8.80711
6.98051
5.86121
5.46266
5.69225
5.78785
5.33805
3.9234
2.08089
0.887995
0.756848
0.918081
1.16907
1.48413
2.03605
2.87621
4.38255
11.05
12.3054
13.103
13.6303
13.9416
14.0928
14.0548
13.7926
13.3044
12.5921
11.6881
10.6082
9.37106
7.86052
6.50394
5.6753
5.22556
5.01669
4.82171
4.45984
3.49784
2.03987