/*--------------------------------*- C++ -*----------------------------------*\
| =========                 |                                                 |
| \\      /  F ield         | OpenFOAM: The Open Source CFD Toolbox           |
|  \\    /   O peration     | Version:  5.0                                   |
|   \\  /    A nd           | Web:      www.OpenFOAM.org                      |
|    \\/     M anipulation  |                                                 |
\*---------------------------------------------------------------------------*/
FoamFile
{
    version     2.0;
    format      ascii;
    class       volScalarField;
    location    "750/air";
    object      k;
}
// * * * * * * * * * * * * * * * * * * * * * * * * * * * * * * * * * * * * * //

dimensions      [0 2 -2 0 0 0 0];

internalField   nonuniform List<scalar> 
243000
(
0.104075
0.11535
0.120042
0.120659
0.118432
0.114252
0.10884
0.102798
0.0965698
0.090555
0.0850751
0.0805707
0.0772325
0.0750432
0.0731628
0.0708553
0.0678644
0.0643615
0.0605823
0.0567114
0.0529561
0.0493595
0.0450678
0.0390218
0.0304547
0.0322693
0.0439521
0.0481998
0.0513953
0.0540202
0.161603
0.184633
0.192439
0.192811
0.189143
0.18271
0.174521
0.165407
0.155983
0.146766
0.138191
0.13081
0.124499
0.118855
0.112871
0.106307
0.0994666
0.0928859
0.0867496
0.0811025
0.0760212
0.0714033
0.0661732
0.0588876
0.048094
0.0483865
0.0673672
0.0795459
0.0877149
0.0949293
0.192365
0.220662
0.232112
0.233454
0.229638
0.222402
0.21298
0.202394
0.191358
0.180496
0.170314
0.161402
0.153554
0.146176
0.13804
0.129023
0.119736
0.111009
0.103096
0.095999
0.0896572
0.0837832
0.0775706
0.0696943
0.0584166
0.0530068
0.072781
0.0912083
0.103677
0.115151
0.211634
0.243885
0.258889
0.261845
0.258743
0.251714
0.24212
0.231087
0.219413
0.207812
0.196841
0.187112
0.178409
0.169957
0.160333
0.149477
0.138228
0.127668
0.118146
0.109672
0.102098
0.0949708
0.0876132
0.0790094
0.0673443
0.0584337
0.0730449
0.0978942
0.114602
0.130051
0.223515
0.258968
0.276687
0.28155
0.279621
0.273372
0.264251
0.253425
0.24175
0.230007
0.218793
0.208733
0.199631
0.190554
0.179893
0.167675
0.15491
0.142858
0.131972
0.122286
0.113602
0.105354
0.0968806
0.0875175
0.0755283
0.0643247
0.0708295
0.101418
0.122192
0.141014
0.230823
0.267222
0.287971
0.294799
0.29429
0.289166
0.280926
0.270736
0.259487
0.248014
0.236938
0.226904
0.21773
0.208339
0.196977
0.183755
0.169864
0.156627
0.144619
0.133904
0.12426
0.115047
0.105567
0.0954828
0.0832048
0.0703826
0.0691769
0.10236
0.12747
0.149442
0.234625
0.270657
0.293815
0.303061
0.304133
0.300345
0.293249
0.283985
0.273456
0.262539
0.251881
0.242146
0.233135
0.223664
0.211849
0.197922
0.183212
0.169061
0.156154
0.144588
0.134132
0.124104
0.113752
0.103019
0.0904598
0.0766019
0.0698249
0.100723
0.130628
0.155519
0.23552
0.270601
0.295229
0.307246
0.310129
0.307826
0.302041
0.293895
0.28429
0.274137
0.264107
0.254871
0.246199
0.236813
0.22475
0.210367
0.19509
0.180264
0.166653
0.1544
0.143271
0.132564
0.121476
0.11018
0.097334
0.0828372
0.0728034
0.0969482
0.132151
0.159536
0.2343
0.268395
0.293831
0.307871
0.312946
0.312287
0.307932
0.301032
0.292489
0.283251
0.274003
0.265415
0.257206
0.248027
0.235885
0.221257
0.205618
0.190342
0.176199
0.163403
0.15173
0.14046
0.12877
0.117
0.103875
0.0889717
0.0766672
0.0932258
0.132444
0.161832
0.231398
0.264519
0.290464
0.306046
0.313096
0.314245
0.311417
0.305843
0.298454
0.290234
0.281886
0.274047
0.266389
0.257507
0.245431
0.230739
0.214921
0.19938
0.184863
0.171657
0.159553
0.147827
0.135661
0.123505
0.110126
0.0949849
0.0809842
0.0901185
0.131616
0.16271
0.226997
0.259278
0.285534
0.302389
0.311341
0.3142
0.312863
0.308676
0.302506
0.295376
0.288005
0.280995
0.273936
0.265423
0.253537
0.23894
0.223104
0.207448
0.192715
0.179218
0.166789
0.154701
0.142177
0.129719
0.116124
0.100782
0.0855023
0.0878133
0.129982
0.16251
0.221321
0.252878
0.279333
0.297319
0.307967
0.312516
0.312787
0.30986
0.304898
0.298914
0.292573
0.286433
0.28002
0.271917
0.260333
0.245966
0.230259
0.214623
0.199812
0.18614
0.17348
0.161123
0.148344
0.135664
0.121894
0.106384
0.090152
0.0864834
0.127822
0.161621
0.215128
0.24552
0.272089
0.291102
0.303243
0.309499
0.311263
0.309799
0.30593
0.301058
0.295763
0.290516
0.284774
0.277125
0.265931
0.251915
0.236466
0.220974
0.2062
0.192476
0.179679
0.167133
0.154192
0.141358
0.127449
0.111822
0.095035
0.0863485
0.125222
0.160335
0.208832
0.237769
0.26402
0.283947
0.297459
0.305318
0.308553
0.30849
0.305931
0.302021
0.297742
0.29338
0.288312
0.281159
0.270434
0.256873
0.241799
0.226567
0.211935
0.198261
0.185427
0.172768
0.159745
0.146813
0.132813
0.117099
0.0998917
0.0880358
0.121705
0.158658
0.202277
0.23027
0.255468
0.276059
0.290803
0.30014
0.304858
0.306126
0.304826
0.302081
0.298656
0.295145
0.290745
0.284123
0.273934
0.260923
0.246331
0.231463
0.217071
0.203534
0.190755
0.178063
0.165032
0.152066
0.138018
0.122236
0.104726
0.0908073
0.117754
0.156673
0.195349
0.222878
0.247418
0.267673
0.283446
0.294119
0.300322
0.302851
0.302801
0.301149
0.298717
0.295924
0.292181
0.286113
0.276521
0.264142
0.250128
0.235724
0.221664
0.208349
0.195707
0.183061
0.170084
0.157147
0.143092
0.127257
0.109509
0.0939578
0.114206
0.154516
0.187961
0.215484
0.239659
0.259492
0.275566
0.287449
0.295036
0.298801
0.299936
0.299383
0.29789
0.295884
0.292719
0.287221
0.278284
0.266612
0.253264
0.239413
0.22577
0.212759
0.200339
0.187813
0.174942
0.162087
0.148068
0.132197
0.11425
0.0974908
0.111343
0.152284
0.180016
0.208004
0.232084
0.251696
0.267402
0.280274
0.289119
0.294097
0.296331
0.296856
0.296286
0.295025
0.292468
0.287561
0.279314
0.26842
0.255817
0.242602
0.229456
0.216827
0.204707
0.192382
0.179656
0.166929
0.152986
0.137097
0.118975
0.101328
0.109353
0.150165
0.171366
0.200379
0.224631
0.244194
0.259731
0.272749
0.282684
0.288851
0.292107
0.293646
0.293972
0.293456
0.291483
0.287196
0.2797
0.269649
0.257867
0.245367
0.232793
0.220624
0.208872
0.196826
0.184278
0.171719
0.157889
0.142004
0.123713
0.105216
0.10822
0.148282
0.16194
0.192581
0.217274
0.23693
0.252406
0.265055
0.275838
0.283157
0.287361
0.289844
0.291021
0.291231
0.289863
0.286221
0.279524
0.270382
0.259494
0.247788
0.235861
0.224217
0.212889
0.201195
0.188857
0.1765
0.162821
0.146967
0.128502
0.109215
0.108036
0.146525
0.151667
0.184609
0.210015
0.22988
0.245369
0.257817
0.268686
0.277059
0.282153
0.285505
0.287489
0.28839
0.287662
0.284701
0.278856
0.270687
0.260767
0.249934
0.238725
0.22766
0.216801
0.205513
0.19343
0.181312
0.167821
0.152019
0.133379
0.113378
0.108441
0.144879
0.139781
0.176501
0.202904
0.223055
0.238601
0.250928
0.261368
0.270553
0.276469
0.28064
0.283382
0.284946
0.284881
0.282653
0.277717
0.270581
0.261712
0.251827
0.241409
0.23097
0.220613
0.209764
0.198014
0.186187
0.172939
0.157202
0.138386
0.117684
0.109351
0.143389
0.127835
0.168402
0.196031
0.216492
0.2321
0.244336
0.254484
0.26368
0.270297
0.275181
0.278617
0.280822
0.28142
0.279989
0.276025
0.270001
0.262263
0.253392
0.243828
0.234065
0.224238
0.213844
0.202603
0.191165
0.178225
0.162575
0.143574
0.122176
0.110847
0.142146
0.118818
0.160407
0.189537
0.210236
0.225839
0.23799
0.24802
0.256989
0.263618
0.26901
0.273007
0.275788
0.277028
0.276434
0.273489
0.268645
0.262071
0.254353
0.245718
0.236712
0.227474
0.217599
0.207256
0.196389
0.183838
0.168306
0.149064
0.126946
0.112995
0.141338
0.115319
0.152876
0.183612
0.204382
0.219935
0.232078
0.242062
0.250943
0.257421
0.262608
0.266605
0.269672
0.271475
0.271697
0.269773
0.266135
0.260824
0.254363
0.247079
0.239193
0.230903
0.222068
0.212677
0.202421
0.190265
0.174845
0.155249
0.132277
0.115951
0.141469
0.116846
0.147419
0.178777
0.199412
0.214827
0.226916
0.236906
0.245825
0.252406
0.257655
0.261892
0.265284
0.267604
0.268625
0.267956
0.265752
0.262065
0.257156
0.251216
0.244459
0.237087
0.229083
0.220367
0.210538
0.198592
0.183084
0.162976
0.138836
0.120399
0.142944
0.1229
0.145892
0.176119
0.196358
0.211649
0.223825
0.234014
0.243287
0.250461
0.256261
0.261222
0.265418
0.268776
0.271052
0.27194
0.271407
0.269436
0.266096
0.261472
0.255759
0.249139
0.24166
0.233216
0.22341
0.211275
0.195241
0.174086
0.14821
0.127667
0.147134
0.136033
0.154071
0.18129
0.201158
0.216701
0.229425
0.240455
0.250821
0.259563
0.266865
0.273436
0.279332
0.284609
0.288892
0.291797
0.293071
0.292699
0.290575
0.286753
0.281472
0.274966
0.267291
0.258327
0.247733
0.234648
0.217526
0.194567
0.166072
0.143101
0.159284
0.187292
0.200927
0.225679
0.245732
0.262375
0.276618
0.289266
0.301303
0.312541
0.322353
0.331243
0.339365
0.347407
0.3541
0.358714
0.361051
0.361226
0.359091
0.354764
0.348659
0.341144
0.332277
0.32161
0.309154
0.29441
0.276057
0.252354
0.222468
0.197701
0.208807
0.431211
0.440792
0.458106
0.472663
0.485234
0.494286
0.500121
0.505252
0.510896
0.517013
0.522057
0.526836
0.534755
0.540387
0.542964
0.543672
0.542657
0.540038
0.535863
0.531115
0.526263
0.521205
0.512956
0.503904
0.494657
0.483897
0.471144
0.452851
0.437646
0.442007
0.148685
0.175943
0.187327
0.192111
0.191413
0.186718
0.179239
0.17005
0.159973
0.149705
0.139731
0.130566
0.122473
0.115427
0.107863
0.0988056
0.0883344
0.0771908
0.0661023
0.0555596
0.0464993
0.0398965
0.0345744
0.0300496
0.0312013
0.0406578
0.0506383
0.0542668
0.0567709
0.0636576
0.238496
0.285756
0.303768
0.308534
0.30334
0.291961
0.276918
0.25998
0.242153
0.224174
0.206433
0.189377
0.172806
0.155793
0.137451
0.119629
0.103626
0.0903969
0.0797532
0.0712536
0.0643044
0.0582355
0.0538593
0.0494992
0.0507568
0.0627976
0.0795798
0.0961189
0.112496
0.140037
0.2898
0.350086
0.377903
0.388388
0.385442
0.374369
0.358055
0.338649
0.317456
0.295486
0.273316
0.251571
0.23002
0.207335
0.182641
0.158481
0.137147
0.120108
0.10701
0.097006
0.0889272
0.0816759
0.075209
0.0670846
0.0622149
0.0702262
0.0902266
0.116965
0.142719
0.178502
0.316523
0.388854
0.423589
0.439554
0.440118
0.431362
0.416194
0.396833
0.374761
0.351179
0.326853
0.302579
0.278114
0.251884
0.222903
0.194256
0.168841
0.148616
0.133241
0.121647
0.112275
0.10387
0.0956246
0.0838852
0.0723514
0.0731846
0.0950398
0.12932
0.162927
0.203471
0.332686
0.410886
0.451549
0.472279
0.476956
0.471243
0.458354
0.440349
0.418778
0.394956
0.369856
0.344447
0.318414
0.289962
0.257903
0.225999
0.197532
0.174709
0.157384
0.144369
0.133881
0.124595
0.115109
0.100519
0.0832615
0.0765868
0.0958182
0.137644
0.178427
0.22283
0.341954
0.419602
0.467603
0.492151
0.501131
0.49878
0.48875
0.472845
0.45261
0.429448
0.404533
0.378949
0.352256
0.322464
0.288208
0.253955
0.223216
0.198317
0.179373
0.165163
0.153818
0.143968
0.13369
0.116991
0.0953643
0.0819342
0.0941617
0.142405
0.190044
0.238242
0.345238
0.419281
0.471173
0.502715
0.515843
0.517113
0.510198
0.496812
0.478429
0.456545
0.432486
0.407409
0.3807
0.350197
0.314503
0.278576
0.246181
0.219657
0.199398
0.18422
0.172277
0.162157
0.151421
0.133181
0.108386
0.08915
0.0934984
0.144308
0.198152
0.25048
0.344359
0.415516
0.468796
0.503951
0.523266
0.528429
0.524684
0.514036
0.497814
0.477621
0.454885
0.430785
0.404548
0.373784
0.337293
0.30024
0.266689
0.238968
0.217666
0.201746
0.189447
0.179329
0.168357
0.149005
0.121935
0.0978214
0.0961176
0.14364
0.20338
0.259875
0.34152
0.409416
0.463385
0.500981
0.523912
0.534154
0.533669
0.525858
0.511957
0.493707
0.472622
0.449823
0.42442
0.393718
0.356923
0.319269
0.284976
0.256462
0.234372
0.21792
0.205478
0.195595
0.18455
0.16442
0.13572
0.107814
0.100631
0.140542
0.206389
0.266727
0.337036
0.401687
0.455847
0.495349
0.521168
0.534993
0.538319
0.533327
0.521792
0.50562
0.48639
0.46512
0.440774
0.410451
0.373776
0.335951
0.301276
0.272309
0.249677
0.2329
0.220489
0.211036
0.200063
0.179433
0.149562
0.118728
0.105907
0.137241
0.207762
0.271308
0.331114
0.392805
0.446794
0.48778
0.516071
0.532772
0.539413
0.537293
0.528064
0.514016
0.496749
0.477194
0.453991
0.424363
0.388171
0.350537
0.315794
0.286658
0.263728
0.246825
0.234603
0.225746
0.214982
0.194088
0.163374
0.130309
0.111883
0.134868
0.208015
0.27389
0.323976
0.383186
0.43669
0.4788
0.509193
0.528439
0.537868
0.538566
0.53136
0.519433
0.504186
0.4864
0.464482
0.435802
0.400393
0.363254
0.328721
0.299649
0.276673
0.259832
0.247942
0.239831
0.229412
0.208462
0.177133
0.142434
0.118954
0.134014
0.20735
0.274899
0.315949
0.373297
0.425993
0.46882
0.500962
0.52242
0.534267
0.537546
0.532615
0.52237
0.509141
0.493129
0.47262
0.445099
0.410709
0.374325
0.340248
0.311442
0.288653
0.272055
0.260636
0.253404
0.243479
0.22266
0.190854
0.155031
0.127002
0.135045
0.206141
0.274955
0.306656
0.363589
0.415195
0.45823
0.491716
0.515031
0.529027
0.534611
0.532268
0.523656
0.512024
0.497781
0.478765
0.45256
0.419385
0.383979
0.350574
0.322225
0.299811
0.283619
0.272823
0.266586
0.257321
0.236824
0.204675
0.167733
0.135802
0.137781
0.204709
0.273992
0.296187
0.353619
0.404746
0.447412
0.481776
0.506628
0.522489
0.530089
0.530062
0.523733
0.51346
0.500756
0.483287
0.458509
0.426706
0.392465
0.35993
0.332204
0.310322
0.294673
0.284665
0.279517
0.271093
0.251131
0.218801
0.18074
0.145475
0.142017
0.203316
0.272574
0.284716
0.343406
0.394305
0.43667
0.471476
0.497544
0.51497
0.524404
0.526526
0.522113
0.513862
0.502526
0.486584
0.463303
0.433003
0.400089
0.368591
0.341633
0.320405
0.305406
0.296399
0.292374
0.28498
0.265799
0.233468
0.194306
0.1563
0.147543
0.20206
0.27102
0.272468
0.333101
0.383926
0.426245
0.461119
0.488139
0.506844
0.517912
0.521964
0.519686
0.513368
0.503594
0.489093
0.467364
0.438679
0.407218
0.376911
0.350838
0.330345
0.31608
0.308247
0.305372
0.299205
0.281079
0.24894
0.208706
0.168332
0.154357
0.200961
0.269421
0.259705
0.322561
0.373589
0.416064
0.451037
0.478742
0.498582
0.511048
0.516856
0.516798
0.512264
0.504361
0.491316
0.471205
0.444243
0.4144
0.385368
0.360262
0.340528
0.327063
0.320492
0.318801
0.31405
0.297253
0.265509
0.224216
0.181651
0.161972
0.201432
0.267951
0.246337
0.311887
0.363351
0.40621
0.441456
0.46977
0.490638
0.504358
0.511864
0.513925
0.511307
0.505314
0.493874
0.475485
0.450365
0.422251
0.394598
0.370522
0.351514
0.338933
0.333562
0.333073
0.329883
0.314648
0.283505
0.241169
0.1963
0.170821
0.203128
0.266725
0.232489
0.301274
0.353374
0.396803
0.432578
0.461646
0.483501
0.498511
0.507742
0.51186
0.51149
0.50724
0.497604
0.481093
0.45796
0.431692
0.405509
0.382506
0.364202
0.352588
0.348212
0.348805
0.347213
0.333683
0.303295
0.259924
0.212168
0.181009
0.206017
0.265806
0.219034
0.291026
0.343902
0.388039
0.424619
0.454639
0.477855
0.494306
0.505457
0.511595
0.513625
0.511312
0.503686
0.489279
0.468345
0.444083
0.419478
0.397618
0.379989
0.369249
0.365658
0.367087
0.366853
0.354967
0.325359
0.280612
0.229466
0.192593
0.209865
0.265383
0.207295
0.281446
0.335222
0.38021
0.417888
0.449229
0.474277
0.492251
0.50541
0.514689
0.519376
0.519305
0.513848
0.501945
0.483597
0.461632
0.438843
0.418047
0.40149
0.391193
0.38803
0.389809
0.390239
0.379547
0.350467
0.303789
0.248423
0.205116
0.215023
0.265852
0.198891
0.272877
0.327717
0.373751
0.412828
0.44594
0.473053
0.495007
0.511292
0.523343
0.531102
0.534008
0.531265
0.522345
0.50741
0.488401
0.468095
0.448887
0.433124
0.422901
0.419329
0.42039
0.420138
0.40946
0.380066
0.330386
0.269648
0.21859
0.221905
0.2675
0.195489
0.26612
0.32201
0.369376
0.410197
0.445664
0.478089
0.505803
0.526213
0.541703
0.553357
0.56039
0.561744
0.557144
0.547264
0.533035
0.515996
0.498873
0.483746
0.472854
0.467247
0.465351
0.461914
0.448924
0.41721
0.362426
0.294302
0.233909
0.230734
0.271394
0.199453
0.26259
0.319302
0.368681
0.414186
0.456242
0.494356
0.528884
0.554986
0.576543
0.594545
0.608165
0.616388
0.61864
0.615858
0.608384
0.596902
0.583139
0.568465
0.555426
0.545139
0.536617
0.525964
0.506366
0.468415
0.404799
0.325961
0.253712
0.243852
0.279971
0.215762
0.268642
0.328171
0.384026
0.436058
0.485403
0.531465
0.575169
0.610562
0.641563
0.66918
0.692968
0.712099
0.72553
0.73411
0.736776
0.733802
0.725122
0.710972
0.694027
0.675727
0.655576
0.631126
0.597322
0.546174
0.468846
0.373866
0.284561
0.267127
0.298653
0.254929
0.302611
0.36863
0.434407
0.497012
0.557401
0.615664
0.673691
0.72424
0.769576
0.811154
0.848383
0.881361
0.909639
0.933702
0.949367
0.956283
0.952586
0.937034
0.912796
0.882057
0.844726
0.799631
0.743907
0.671923
0.576037
0.459907
0.346538
0.316992
0.345656
0.365756
0.41277
0.494361
0.575732
0.653952
0.729616
0.803286
0.875818
0.941581
1.00135
1.05627
1.10564
1.1502
1.18943
1.22224
1.24317
1.24974
1.24019
1.21492
1.17802
1.13308
1.0809
1.0208
0.950503
0.864901
0.757381
0.626882
0.491649
0.44382
0.471067
0.649404
0.70216
0.796906
0.887859
0.971856
1.05028
1.12556
1.19677
1.26169
1.31974
1.37165
1.41573
1.44965
1.47223
1.47961
1.47067
1.44329
1.40373
1.35675
1.30594
1.25512
1.20609
1.15862
1.11016
1.05477
0.980815
0.886176
0.777209
0.725938
0.751767
0.992643
1.04645
1.11318
1.17836
1.2405
1.29736
1.34854
1.39467
1.4347
1.46595
1.48911
1.50262
1.50345
1.48582
1.44584
1.39468
1.34264
1.28752
1.23421
1.18643
1.1459
1.11343
1.08931
1.07376
1.06313
1.05246
1.03695
1.01634
1.0124
1.03246
0.183866
0.223812
0.239264
0.247154
0.248192
0.24384
0.235467
0.224355
0.211465
0.197595
0.183251
0.168961
0.154897
0.140888
0.125029
0.10715
0.0886269
0.0715147
0.0567796
0.0447298
0.0371241
0.035437
0.0314497
0.0299067
0.0361665
0.0464191
0.0558084
0.0592434
0.0633347
0.0796235
0.296602
0.361866
0.390435
0.399974
0.395997
0.383634
0.365986
0.345022
0.321902
0.297384
0.271833
0.245614
0.218117
0.188468
0.159226
0.135269
0.117429
0.105259
0.0957616
0.0861567
0.0753006
0.0685203
0.0522083
0.043528
0.0507883
0.0675143
0.0886361
0.109281
0.133364
0.172183
0.360576
0.440036
0.481353
0.49846
0.497563
0.486037
0.467388
0.44385
0.416761
0.387093
0.355471
0.322421
0.287183
0.248692
0.210558
0.180034
0.158066
0.143623
0.132849
0.121572
0.108411
0.0966841
0.0754481
0.058747
0.06015
0.0759674
0.103358
0.136895
0.173991
0.223515
0.396706
0.487671
0.536965
0.560518
0.563958
0.555236
0.538137
0.514856
0.486798
0.455052
0.420462
0.383647
0.343835
0.299815
0.255845
0.220547
0.194854
0.177745
0.165181
0.152283
0.137374
0.122065
0.0975191
0.074549
0.0676532
0.0795129
0.110903
0.154554
0.201482
0.258069
0.418505
0.514635
0.571103
0.600025
0.608509
0.60343
0.589073
0.56744
0.539943
0.507781
0.471978
0.433192
0.390656
0.343082
0.295151
0.256429
0.227735
0.208178
0.193911
0.179761
0.163808
0.146059
0.119141
0.0914258
0.0763208
0.0818777
0.114822
0.167959
0.223343
0.28458
0.430276
0.524593
0.589243
0.623656
0.637635
0.636758
0.625829
0.60668
0.580681
0.549153
0.513246
0.473749
0.429756
0.379871
0.329359
0.288222
0.257218
0.235558
0.219824
0.204848
0.188412
0.169103
0.140463
0.109239
0.0869828
0.0856677
0.116096
0.177208
0.240756
0.305272
0.432765
0.523441
0.591628
0.635579
0.655023
0.658989
0.65182
0.635682
0.611803
0.581621
0.546442
0.507134
0.462642
0.41132
0.359377
0.316637
0.28387
0.260434
0.243492
0.228092
0.211615
0.191371
0.161455
0.12761
0.0997888
0.0918759
0.116652
0.183321
0.25418
0.321605
0.430051
0.518058
0.587648
0.635239
0.663337
0.672574
0.66936
0.656561
0.635216
0.606886
0.573072
0.534628
0.49032
0.438426
0.385983
0.342276
0.308178
0.283258
0.265337
0.249835
0.233728
0.212931
0.182011
0.146185
0.114169
0.100475
0.118632
0.187142
0.264407
0.334496
0.424731
0.509749
0.580028
0.630635
0.662904
0.679197
0.680161
0.670891
0.652334
0.626221
0.594255
0.557241
0.513584
0.462004
0.409828
0.36564
0.330547
0.304392
0.285701
0.27032
0.254948
0.233816
0.202184
0.164787
0.129575
0.110572
0.122789
0.189259
0.272129
0.344752
0.417539
0.499412
0.569847
0.622838
0.658818
0.67928
0.685579
0.679918
0.664274
0.640632
0.610885
0.575729
0.533205
0.482754
0.431459
0.387152
0.351298
0.324159
0.304858
0.289749
0.275303
0.254066
0.221992
0.183362
0.145682
0.121777
0.12871
0.190426
0.277821
0.352752
0.408913
0.487731
0.557924
0.612775
0.651951
0.676119
0.686654
0.684691
0.671953
0.650952
0.623712
0.590692
0.549914
0.50129
0.451323
0.40716
0.370723
0.342819
0.323039
0.308338
0.294879
0.273715
0.241483
0.20193
0.162231
0.133853
0.13581
0.191711
0.281866
0.358857
0.399339
0.475335
0.544942
0.601186
0.643052
0.670473
0.684514
0.68625
0.67607
0.657864
0.633366
0.602825
0.564368
0.518126
0.469792
0.425963
0.389103
0.360612
0.340465
0.326336
0.313804
0.292866
0.260719
0.220533
0.178976
0.146741
0.143874
0.193681
0.284666
0.363313
0.389567
0.462851
0.531535
0.588692
0.632741
0.66294
0.679987
0.685055
0.677914
0.66211
0.64055
0.612784
0.577146
0.533693
0.487181
0.443839
0.406713
0.377788
0.357387
0.34405
0.332259
0.31169
0.279839
0.239239
0.196023
0.160511
0.152636
0.196674
0.286694
0.366356
0.379157
0.450986
0.51835
0.575871
0.621557
0.654084
0.673659
0.681676
0.678142
0.664635
0.645932
0.621196
0.588773
0.548362
0.503786
0.461078
0.423855
0.394647
0.3741
0.361635
0.350464
0.33041
0.299062
0.25817
0.213522
0.175058
0.162216
0.20085
0.288486
0.368302
0.367741
0.439478
0.506026
0.56328
0.610014
0.64442
0.666087
0.676601
0.676168
0.665874
0.650132
0.628672
0.599745
0.562497
0.519939
0.478027
0.4409
0.411558
0.391014
0.379401
0.368703
0.349308
0.318679
0.277622
0.231696
0.190528
0.173095
0.206205
0.29031
0.369673
0.355255
0.428212
0.494532
0.551399
0.598609
0.634435
0.657891
0.670589
0.673175
0.666372
0.653784
0.635825
0.610557
0.576518
0.536058
0.495148
0.458343
0.429011
0.408719
0.397818
0.387355
0.368752
0.339054
0.298017
0.250792
0.207036
0.185091
0.212704
0.292342
0.370859
0.341912
0.417154
0.483795
0.540515
0.587783
0.624634
0.649699
0.664379
0.669787
0.666715
0.65757
0.643301
0.62176
0.590956
0.552726
0.513083
0.476877
0.447715
0.428135
0.41754
0.407019
0.389225
0.360631
0.319836
0.271197
0.224747
0.198197
0.220392
0.294688
0.371894
0.328163
0.40638
0.473761
0.530624
0.57796
0.615493
0.642148
0.658789
0.666902
0.667527
0.662287
0.651836
0.634056
0.60653
0.570761
0.532744
0.497488
0.468747
0.450115
0.439413
0.428517
0.411405
0.383985
0.343652
0.293396
0.243898
0.212401
0.229393
0.297589
0.37285
0.314582
0.39606
0.464458
0.521727
0.569318
0.607479
0.635737
0.654638
0.665607
0.670206
0.668955
0.662377
0.648358
0.624276
0.591354
0.555459
0.521597
0.493843
0.475939
0.464625
0.452984
0.436278
0.409923
0.370138
0.317953
0.264733
0.227751
0.239662
0.301173
0.373832
0.301774
0.386492
0.456013
0.513875
0.561984
0.601119
0.630935
0.652227
0.666554
0.675811
0.678937
0.676361
0.666044
0.64571
0.616263
0.58321
0.551382
0.525376
0.507572
0.494869
0.48213
0.465335
0.439674
0.400248
0.345607
0.287669
0.24438
0.251029
0.305514
0.374953
0.290702
0.378225
0.448718
0.507162
0.556092
0.596585
0.628463
0.652379
0.672315
0.685891
0.693874
0.695732
0.689367
0.673109
0.648172
0.619081
0.590561
0.566228
0.547839
0.533126
0.518717
0.500969
0.47514
0.435424
0.37754
0.313534
0.262397
0.263187
0.310713
0.376403
0.282653
0.371697
0.442443
0.501864
0.552105
0.594331
0.629624
0.660359
0.684789
0.702886
0.716202
0.723376
0.721688
0.710314
0.691396
0.668167
0.643416
0.620658
0.601107
0.584106
0.567146
0.547041
0.519462
0.478045
0.415704
0.343697
0.282689
0.276164
0.317106
0.37858
0.278775
0.366423
0.437517
0.498467
0.550663
0.597111
0.640555
0.677596
0.707315
0.730703
0.750197
0.763744
0.768492
0.763932
0.752969
0.736536
0.716223
0.695285
0.674845
0.655064
0.634223
0.60967
0.57771
0.532032
0.463318
0.380611
0.306866
0.29105
0.325444
0.382437
0.278783
0.363025
0.434947
0.498789
0.557825
0.613226
0.663457
0.708166
0.744551
0.775619
0.803309
0.825004
0.838562
0.842833
0.840871
0.832461
0.818721
0.800865
0.779649
0.756243
0.729542
0.697571
0.657515
0.603664
0.525813
0.428921
0.338047
0.310376
0.337413
0.390252
0.288207
0.365895
0.44266
0.515435
0.583564
0.64706
0.706216
0.760365
0.806101
0.847229
0.885342
0.917453
0.941885
0.957851
0.96821
0.969948
0.964226
0.949925
0.927194
0.898455
0.863276
0.820367
0.768142
0.701924
0.611625
0.49734
0.38407
0.339815
0.358868
0.406798
0.319014
0.395057
0.478426
0.5607
0.639651
0.714148
0.784364
0.851036
0.909468
0.963367
1.01417
1.05882
1.09604
1.12552
1.15011
1.16178
1.16157
1.14745
1.11931
1.07951
1.0318
0.976453
0.911825
0.833237
0.731227
0.600595
0.462109
0.394795
0.405755
0.446838
0.394841
0.472558
0.567874
0.664764
0.756834
0.844443
0.928083
1.00875
1.08138
1.14859
1.21182
1.26819
1.31664
1.35655
1.38954
1.40122
1.3912
1.35829
1.31224
1.25838
1.20091
1.1397
1.07196
0.991869
0.889712
0.756224
0.602128
0.508908
0.507687
0.543788
0.583646
0.662661
0.771979
0.881459
0.984166
1.0811
1.17336
1.26153
1.3419
1.41541
1.48319
1.5426
1.59141
1.62624
1.64287
1.62084
1.57581
1.51677
1.45261
1.38824
1.32769
1.27094
1.21467
1.15202
1.07208
0.962948
0.826712
0.730884
0.717834
0.752261
0.92816
1.007
1.11657
1.22482
1.32262
1.41139
1.49464
1.57203
1.64223
1.70482
1.75947
1.80287
1.82593
1.82062
1.78228
1.70987
1.62838
1.54391
1.46542
1.39694
1.34189
1.29956
1.26766
1.23986
1.20546
1.15216
1.07923
1.02202
1.02196
1.06603
1.16952
1.24414
1.33213
1.42117
1.50571
1.58167
1.65183
1.71098
1.76066
1.80061
1.82835
1.83733
1.81824
1.76357
1.67954
1.57202
1.46881
1.37298
1.29165
1.22804
1.18379
1.15775
1.14831
1.15238
1.16235
1.16805
1.16659
1.16777
1.19024
1.23899
0.22046
0.268053
0.284892
0.292834
0.294541
0.290431
0.281552
0.269116
0.254046
0.237134
0.218836
0.199642
0.179516
0.158082
0.133497
0.108404
0.0866137
0.0731722
0.0664424
0.0599561
0.0436409
0.0340383
0.0310509
0.0308277
0.0400966
0.0509983
0.060737
0.0654588
0.0707271
0.0937299
0.3628
0.437744
0.4675
0.478315
0.474139
0.460497
0.440487
0.416105
0.38842
0.358082
0.325234
0.290008
0.251247
0.209136
0.171983
0.14997
0.139536
0.137303
0.13239
0.116642
0.0858255
0.0607465
0.048297
0.0434983
0.0553351
0.0761566
0.100048
0.126863
0.159101
0.199339
0.446641
0.534476
0.57791
0.596347
0.594504
0.58109
0.559686
0.532283
0.499908
0.463273
0.422727
0.378484
0.329092
0.274852
0.22812
0.202104
0.190498
0.186742
0.178895
0.156524
0.120415
0.0897972
0.0703115
0.0578946
0.0662961
0.0884256
0.120504
0.16282
0.211112
0.26398
0.499714
0.594568
0.647467
0.672172
0.674057
0.663031
0.642864
0.615405
0.58161
0.542154
0.497575
0.448106
0.392217
0.330419
0.277651
0.248222
0.234028
0.227329
0.2164
0.189875
0.151234
0.118529
0.0936756
0.0732012
0.0752462
0.0957389
0.133458
0.187433
0.246287
0.307697
0.532539
0.633751
0.692335
0.722151
0.728858
0.721297
0.703639
0.677537
0.6439
0.603405
0.556749
0.504139
0.444046
0.377234
0.320798
0.288867
0.272038
0.262476
0.249166
0.220015
0.181
0.147756
0.118243
0.0907684
0.0850712
0.102077
0.143639
0.207964
0.273886
0.341122
0.552249
0.651555
0.719105
0.753568
0.766028
0.76278
0.748506
0.724675
0.692176
0.651763
0.604262
0.549937
0.487225
0.416959
0.358725
0.325149
0.305979
0.29397
0.27907
0.248924
0.210496
0.177052
0.14347
0.110523
0.0970789
0.109522
0.152299
0.224483
0.297125
0.367649
0.560352
0.655164
0.727124
0.770964
0.789639
0.791516
0.781195
0.76028
0.729621
0.690085
0.642684
0.587724
0.523417
0.451231
0.392691
0.358149
0.336947
0.322871
0.307045
0.277558
0.239549
0.205358
0.168901
0.131804
0.111563
0.118932
0.160177
0.237824
0.316319
0.389499
0.559149
0.650847
0.72442
0.774764
0.802482
0.810298
0.804213
0.786649
0.758349
0.720312
0.673793
0.619078
0.553932
0.481427
0.423822
0.388766
0.365781
0.349926
0.333641
0.305735
0.26775
0.232317
0.193741
0.153767
0.127739
0.130032
0.16821
0.248945
0.33225
0.40745
0.553834
0.642465
0.717189
0.771436
0.805974
0.820951
0.819415
0.805489
0.779928
0.743905
0.698936
0.645116
0.580076
0.508809
0.453101
0.417759
0.393136
0.375685
0.359299
0.33324
0.294905
0.257908
0.217622
0.175672
0.145062
0.142504
0.176832
0.258469
0.34556
0.422083
0.545321
0.631147
0.706712
0.764318
0.803373
0.825043
0.828348
0.818165
0.795614
0.762042
0.719224
0.666801
0.603092
0.534542
0.481385
0.445762
0.41952
0.400569
0.384445
0.359838
0.321087
0.282334
0.240531
0.197037
0.162787
0.15553
0.186059
0.266885
0.356792
0.434089
0.534195
0.617737
0.693993
0.754376
0.79746
0.823338
0.83214
0.825832
0.806472
0.775738
0.73544
0.685251
0.624162
0.559684
0.509324
0.47328
0.445373
0.424932
0.409132
0.385473
0.346445
0.305907
0.262621
0.217611
0.180253
0.168861
0.195752
0.274578
0.366353
0.444116
0.521308
0.603052
0.679783
0.742465
0.78905
0.8188
0.831786
0.829537
0.813298
0.78583
0.748617
0.70154
0.644396
0.585032
0.537404
0.500714
0.471093
0.449171
0.433541
0.410246
0.371206
0.329018
0.284227
0.237545
0.197316
0.182227
0.205756
0.281804
0.374536
0.452754
0.507721
0.587888
0.664808
0.729349
0.778915
0.812121
0.828771
0.830705
0.817458
0.793337
0.759762
0.716707
0.664763
0.611116
0.565964
0.528416
0.49709
0.473751
0.458023
0.434439
0.395744
0.352118
0.305675
0.257168
0.214277
0.195698
0.216035
0.28875
0.381547
0.460071
0.49344
0.573016
0.649809
0.71574
0.767756
0.803974
0.823801
0.829242
0.819789
0.799216
0.769868
0.731749
0.68605
0.638279
0.59527
0.556744
0.523814
0.499287
0.483042
0.458637
0.420626
0.375722
0.327512
0.276937
0.23148
0.209554
0.226704
0.295565
0.387582
0.466198
0.478308
0.55834
0.635468
0.702283
0.756212
0.795007
0.817703
0.826335
0.820996
0.804366
0.779916
0.747577
0.708834
0.666773
0.625597
0.586127
0.55181
0.526648
0.509159
0.483515
0.446006
0.400396
0.350444
0.297522
0.249311
0.223912
0.238
0.302357
0.392802
0.47137
0.462374
0.544034
0.62186
0.689539
0.744853
0.785829
0.811281
0.822828
0.821827
0.809754
0.790884
0.765012
0.733525
0.69685
0.657326
0.617154
0.581808
0.556381
0.536995
0.509855
0.47254
0.4269
0.37527
0.319673
0.268299
0.239001
0.250265
0.3093
0.397316
0.475749
0.445953
0.530323
0.609208
0.677738
0.734172
0.776999
0.805145
0.819823
0.822995
0.816443
0.803729
0.784787
0.760454
0.728869
0.691061
0.650672
0.614925
0.589228
0.567238
0.538594
0.501232
0.455692
0.402857
0.344303
0.289059
0.255043
0.26342
0.317074
0.40119
0.479424
0.42965
0.517428
0.597696
0.667111
0.724659
0.769031
0.799725
0.817838
0.826112
0.825439
0.819421
0.807739
0.790331
0.763423
0.727751
0.687913
0.65295
0.626278
0.601216
0.570962
0.533297
0.487878
0.434142
0.372455
0.312323
0.272291
0.277096
0.325633
0.405257
0.482442
0.414263
0.505676
0.587471
0.657836
0.716446
0.762437
0.795622
0.817209
0.832016
0.838005
0.839148
0.834912
0.824144
0.801598
0.768873
0.730684
0.697294
0.668805
0.640657
0.608629
0.570345
0.524895
0.47027
0.405297
0.33899
0.291232
0.291766
0.335036
0.409857
0.485414
0.400759
0.495482