/*--------------------------------*- C++ -*----------------------------------*\
| =========                 |                                                 |
| \\      /  F ield         | OpenFOAM: The Open Source CFD Toolbox           |
|  \\    /   O peration     | Version:  5.0                                   |
|   \\  /    A nd           | Web:      www.OpenFOAM.org                      |
|    \\/     M anipulation  |                                                 |
\*---------------------------------------------------------------------------*/
FoamFile
{
    version     2.0;
    format      ascii;
    class       volScalarField;
    location    "750/air";
    object      nut;
}
// * * * * * * * * * * * * * * * * * * * * * * * * * * * * * * * * * * * * * //

dimensions      [0 2 -1 0 0 0 0];

internalField   nonuniform List<scalar> 
243000
(
0.00016947
0.000171926
0.000169111
0.000163638
0.00015668
0.000148971
0.000141034
0.000133255
0.000125898
0.000119195
0.000113323
0.000108547
0.000104992
0.000102657
0.000100963
9.93817e-05
9.76884e-05
9.5936e-05
9.42327e-05
9.26507e-05
9.12992e-05
9.02117e-05
8.85655e-05
8.5035e-05
7.80222e-05
8.05076e-05
9.80231e-05
0.000106798
0.000114143
0.000121464
0.000748413
0.000800762
0.000818276
0.000819609
0.000812172
0.00079856
0.000780717
0.000760269
0.000738468
0.00071647
0.000695339
0.000676604
0.000660197
0.000645227
0.000628964
0.000610543
0.000590652
0.000570809
0.00055164
0.000533377
0.000516408
0.000500606
0.000482416
0.000456497
0.000413164
0.000404735
0.000478894
0.000523333
0.00054935
0.00057121
0.000816485
0.000875325
0.000898642
0.000901877
0.000894929
0.000881089
0.000862519
0.000841059
0.000818016
0.000794643
0.000772049
0.000751711
0.000733367
0.000715746
0.000695782
0.000672843
0.000648255
0.000624194
0.000601515
0.000580414
0.000560921
0.000542381
0.000522287
0.000496229
0.000455197
0.000426638
0.000496219
0.000559549
0.000597195
0.000629304
0.000856147
0.000920192
0.000949025
0.00095516
0.000949987
0.000937395
0.000919678
0.000898748
0.000875983
0.000852717
0.000830074
0.000809462
0.000790596
0.00077189
0.000749988
0.000724348
0.000696644
0.000669511
0.00064403
0.000620468
0.000598666
0.000577564
0.000555091
0.000528087
0.000488666
0.000452199
0.000495102
0.000578991
0.000627767
0.000668977
0.00087967
0.000948117
0.000981069
0.000990464
0.00098761
0.000976929
0.000960828
0.000941222
0.000919531
0.000897143
0.000875192
0.000855017
0.000836369
0.000817402
0.000794499
0.000767253
0.000737564
0.000708301
0.000680746
0.00065525
0.000631563
0.000608393
0.000583731
0.000555606
0.000517328
0.000476109
0.000488126
0.000588474
0.000648183
0.000696802
0.000893754
0.000962954
0.00100086
0.00101352
0.00101322
0.00100479
0.000990712
0.000972869
0.0009527
0.000931637
0.000910808
0.000891514
0.000873519
0.000854754
0.000831418
0.000803252
0.000772398
0.000741707
0.000712675
0.000685726
0.000660578
0.000635819
0.000609344
0.000580201
0.000542767
0.000498808
0.000485276
0.000590215
0.000661953
0.000717482
0.000900907
0.000969016
0.00101085
0.00102763
0.00103006
0.00102406
0.00101224
0.000996417
0.000978035
0.000958562
0.000939131
0.000921017
0.000903942
0.000885677
0.000862272
0.000833678
0.000802212
0.000770627
0.000740595
0.000712601
0.000686357
0.000660408
0.000632518
0.000602553
0.000565697
0.000520956
0.00049306
0.000583476
0.000670029
0.000732049
0.000902481
0.000968834
0.0010132
0.00103469
0.00104019
0.00103676
0.00102732
0.00101368
0.000997247
0.000979537
0.000961688
0.00094495
0.000928967
0.000911382
0.000888176
0.000859518
0.000827836
0.000795785
0.000765123
0.000736419
0.000709388
0.000682573
0.000653628
0.000623053
0.000586563
0.000541909
0.000505339
0.00057224
0.000673885
0.000741528
0.000900033
0.000964802
0.00101075
0.00103568
0.00104492
0.00104427
0.00103731
0.00102593
0.00101155
0.000995714
0.000979574
0.000964338
0.000949547
0.000932749
0.000909943
0.000881508
0.000849904
0.000817753
0.000786761
0.000757616
0.000730058
0.00070263
0.000672952
0.000641968
0.000605752
0.000561575
0.00051995
0.000561996
0.000674514
0.000746853
0.000894327
0.000957734
0.00100488
0.00103254
0.00104513
0.00104754
0.00104317
0.00103411
0.00102183
0.00100794
0.000993595
0.000979933
0.000966388
0.000950444
0.000928201
0.00090022
0.000868936
0.000836964
0.000805896
0.000776541
0.00074867
0.000720842
0.000690712
0.000659505
0.000623549
0.000580107
0.000534956
0.000553634
0.000672192
0.000748851
0.000885664
0.000948116
0.000996251
0.0010263
0.00104213
0.00104742
0.00104559
0.00103891
0.00102876
0.00101685
0.00100435
0.000992315
0.000980022
0.000964981
0.000943433
0.000916097
0.000885342
0.000853749
0.000822855
0.000793481
0.000765482
0.000737431
0.000707092
0.000675834
0.000640168
0.000597368
0.000549983
0.000547685
0.000667811
0.000748448
0.000874428
0.000936244
0.00098529
0.00101758
0.0010364
0.00104458
0.00104544
0.00104089
0.00103285
0.00102296
0.00101232
0.00100191
0.000990886
0.000976753
0.00095602
0.000929489
0.000899442
0.000868405
0.000837889
0.000808679
0.000780705
0.000752594
0.000722253
0.000691095
0.000655764
0.000613584
0.000565106
0.000544914
0.000661988
0.000746552
0.00086229
0.000922437
0.000972335
0.0010068
0.00102834
0.00103949
0.00104286
0.00104078
0.0010346
0.00102665
0.00101786
0.00100907
0.000999306
0.000986102
0.000966274
0.000940682
0.000911501
0.000881177
0.000851196
0.000822346
0.000794548
0.000766514
0.000736342
0.000705407
0.000670465
0.000628945
0.000580397
0.00054679
0.000654614
0.00074365
0.00084967
0.000907903
0.000957715
0.000994246
0.00101842
0.00103238
0.00103828
0.00103857
0.0010346
0.00102831
0.0010213
0.00101407
0.00100554
0.000993296
0.000974452
0.000949917
0.000921741
0.000892277
0.00086297
0.00083463
0.000807175
0.000779343
0.000749479
0.000718859
0.000684353
0.000643491
0.000595092
0.000555523
0.000643459
0.000739708
0.000836212
0.000893524
0.000942122
0.000980229
0.00100687
0.00102352
0.00103202
0.00103456
0.00103275
0.00102842
0.0010229
0.00101717
0.00100983
0.000998563
0.000980772
0.000957399
0.000930357
0.000901882
0.000873379
0.000845675
0.000818707
0.000791209
0.000761778
0.000731575
0.000697568
0.000657337
0.000609314
0.000565422
0.00063265
0.000735007
0.00082166
0.000879059
0.000927181
0.000965144
0.00099396
0.00101312
0.00102428
0.001029
0.00102932
0.00102687
0.00102304
0.00101856
0.00101237
0.0010021
0.00098543
0.000963314
0.000937521
0.000910161
0.000882585
0.000855632
0.00082928
0.000802247
0.000773344
0.000743668
0.000710213
0.000670596
0.000623013
0.000575729
0.000623531
0.000729919
0.000805777
0.000864307
0.000912545
0.000950371
0.000979961
0.00100151
0.00101519
0.00102209
0.00102444
0.00102388
0.00102167
0.00101854
0.00101336
0.00100409
0.000988605
0.000967834
0.000943399
0.00091727
0.000890735
0.00086465
0.000839044
0.0008126
0.000784302
0.000755235
0.000722398
0.000683392
0.000636279
0.000587081
0.000616428
0.000724652
0.000788244
0.000849076
0.000898004
0.000936017
0.000965305
0.000988864
0.00100491
0.00101402
0.00101829
0.00101959
0.00101896
0.00101711
0.00101298
0.00100474
0.000990473
0.000971138
0.000948162
0.000923373
0.000897988
0.000872882
0.000848144
0.000822423
0.000794783
0.000766397
0.000734237
0.000695853
0.000649211
0.00059882
0.000611765
0.00071952
0.000768574
0.000833214
0.000883434
0.000921967
0.000951401
0.000975447
0.000993622
0.00100494
0.00101103
0.0010141
0.00101502
0.00101446
0.00101133
0.00100415
0.000991195
0.000973388
0.000951971
0.000928632
0.000904502
0.000880492
0.000856727
0.000831861
0.000804921
0.000777271
0.000745848
0.000708112
0.000661914
0.000610313
0.00060951
0.000715086
0.000746482
0.000816618
0.000868777
0.000908139
0.000937927
0.000961617
0.000981475
0.000995
0.00100282
0.00100756
0.00100997
0.00101066
0.00100858
0.00100249
0.000990922
0.000974736
0.000954986
0.000933212
0.000910448
0.000887632
0.000864922
0.000841029
0.000814836
0.000787971
0.000757342
0.000720297
0.000674514
0.000621921
0.000610137
0.000710977
0.000721527
0.000799222
0.000854043
0.0008945
0.000924786
0.00094843
0.000968654
0.000984231
0.00099373
0.00100004
0.00100388
0.00100578
0.0010048
0.000999879
0.000989772
0.00097531
0.000957339
0.000937253
0.000915962
0.000894425
0.000872831
0.000849996
0.000824617
0.000798592
0.000768815
0.000732491
0.000687113
0.000633883
0.000612074
0.000707145
0.00069106
0.000781046
0.000839336
0.000881088
0.00091196
0.000935716
0.000955417
0.000972611
0.000983712
0.00099154
0.000996752
0.000999811
0.000999986
0.000996323
0.000987784
0.00097514
0.000959087
0.000940807
0.000921107
0.000900915
0.000880484
0.000858743
0.000834313
0.000809211
0.00078039
0.000744796
0.000699813
0.000645821
0.00061575
0.000703682
0.000660126
0.000762378
0.00082486
0.000867994
0.000899465
0.00092338
0.000942796
0.000960185
0.000972714
0.000981907
0.000988401
0.000992616
0.000993945
0.000991663
0.000984806
0.000974121
0.000960117
0.000943747
0.000925736
0.000906961
0.000887724
0.000867073
0.000843916
0.000819914
0.000792152
0.000757329
0.000712721
0.000658033
0.000620981
0.000700829
0.000638294
0.000742989
0.000810936
0.000855334
0.000887267
0.000911346
0.000930776
0.00094795
0.000960671
0.000970888
0.000978449
0.000983738
0.00098621
0.000985396
0.000980311
0.000971705
0.000959791
0.000945564
0.000929347
0.000912113
0.000894151
0.000874664
0.000853523
0.000830981
0.000804442
0.000770473
0.000726126
0.000670735
0.000627824
0.000699085
0.000631946
0.000724505
0.00079804
0.000843338
0.000875611
0.000899987
0.000919565
0.000936757
0.000949316
0.000959236
0.000966852
0.000972793
0.000976311
0.000976944
0.000973654
0.000967179
0.000957508
0.000945462
0.000931782
0.000916746
0.000900704
0.000883354
0.000864481
0.000843542
0.000818269
0.000785171
0.000740933
0.000684643
0.000636715
0.000699686
0.000639611
0.00071115
0.000787426
0.000833051
0.000865436
0.000889974
0.00090977
0.000927179
0.000940042
0.000950128
0.000958218
0.000964735
0.000969182
0.000971236
0.000970178
0.000966275
0.000959562
0.000950476
0.000939394
0.000926634
0.000912531
0.000897012
0.000879827
0.000860166
0.000835848
0.000803321
0.000759012
0.000701357
0.000649536
0.000703681
0.000658101
0.000707869
0.000781643
0.000826732
0.000859094
0.000883979
0.000904289
0.000922425
0.000936452
0.000947554
0.000956951
0.000964858
0.000971152
0.000975426
0.000977142
0.000976253
0.00097271
0.000966635
0.000958171
0.000947614
0.000935257
0.000921133
0.000904968
0.000885934
0.000861979
0.000829395
0.000784286
0.00072459
0.000669345
0.000714371
0.000693115
0.000728947
0.000793482
0.000837075
0.000869543
0.000895199
0.000916845
0.000936722
0.000953407
0.000966979
0.000979028
0.000989696
0.000999136
0.00100674
0.00101186
0.0010141
0.00101347
0.00100978
0.00100311
0.000993826
0.000982285
0.000968526
0.00095225
0.00093273
0.000908183
0.000875157
0.000828809
0.000766734
0.000708725
0.000743906
0.000812269
0.000835429
0.000886602
0.000926054
0.000957475
0.000983523
0.00100603
0.00102696
0.0010463
0.00106271
0.00107742
0.00109057
0.00110344
0.00111406
0.00112133
0.00112499
0.00112528
0.00112198
0.00111523
0.00110561
0.00109368
0.00107945
0.00106213
0.00104156
0.00101675
0.000985116
0.000942759
0.000886075
0.000832479
0.000852856
0.00122937
0.00124135
0.00126567
0.00128591
0.00130315
0.00131554
0.00132336
0.00133026
0.00133764
0.00134554
0.00135225
0.00135822
0.00136828
0.00137554
0.00137886
0.00137979
0.00137855
0.00137529
0.00137004
0.001364
0.0013578
0.0013513
0.00134086
0.001329
0.00131681
0.00130257
0.00128557
0.00126076
0.00123791
0.00124292
0.000202481
0.000212269
0.000211204
0.000206456
0.000199183
0.000190455
0.000181014
0.00017143
0.000162094
0.000153324
0.000145314
0.000138277
0.000132326
0.000127443
0.000122729
0.000117509
0.000111615
0.000105235
9.86097e-05
9.18835e-05
8.57038e-05
8.12808e-05
7.76371e-05
7.42972e-05
7.72772e-05
9.09752e-05
0.000105575
0.000113724
0.000120134
0.000131527
0.000818427
0.000967401
0.000962953
0.000919943
0.000858585
0.000793365
0.000731864
0.0006764
0.000626181
0.000580476
0.000537715
0.00049766
0.000457371
0.000412514
0.000364643
0.000322435
0.000289551
0.000267981
0.00025576
0.000251665
0.000255841
0.000263794
0.000281931
0.000284284
0.000295169
0.00042423
0.000545823
0.000656707
0.000739305
0.000792624
0.00138844
0.00168569
0.00174228
0.00170493
0.00161462
0.00150823
0.00140187
0.00130255
0.00121029
0.00112493
0.00104396
0.000966497
0.000887563
0.000798286
0.000704379
0.00062101
0.000555793
0.000512934
0.000488669
0.000479697
0.000485728
0.000494827
0.00050642
0.000483517
0.000455173
0.000565548
0.000733637
0.000945299
0.00113837
0.00127672
0.00180389
0.00225118
0.00237074
0.00235965
0.00226364
0.0021384
0.00200514
0.00187585
0.00175219
0.00163627
0.00152451
0.00141285
0.00129689
0.00116952
0.00103672
0.000918835
0.000825564
0.000763243
0.000726865
0.00071137
0.000713214
0.00071824
0.000716679
0.000660021
0.000578825
0.000620294
0.000806329
0.00109591
0.00140062
0.00164437
0.00213554
0.00268464
0.00286308
0.00288127
0.00279506
0.00266486
0.00251857
0.00237138
0.0022269
0.00208829
0.00194991
0.00181277
0.00166753
0.00150802
0.00134313
0.00119758
0.00108201
0.00100284
0.000955534
0.000933432
0.000930015
0.000929435
0.000916001
0.000827158
0.000693447
0.000661886
0.000834033
0.00119375
0.00160092
0.00195577
0.0024049
0.00298209
0.00324699
0.00328953
0.00322273
0.00309644
0.002948
0.00279175
0.00263463
0.00247891
0.00232358
0.00216612
0.0019975
0.00181294
0.00162246
0.00145533
0.00132241
0.00122889
0.00117172
0.00114338
0.00113483
0.0011291
0.00110629
0.000989529
0.000809852
0.000711566
0.000835514
0.001249
0.00174916
0.00221349
0.00260948
0.0031712
0.0034848
0.00360363
0.00356074
0.00344658
0.00330349
0.00314499
0.00298132
0.00281506
0.00264838
0.00247665
0.00229039
0.00208704
0.00187719
0.00169358
0.00154736
0.00144166
0.0013756
0.00134137
0.00132818
0.00131855
0.00128829
0.00114782
0.000929794
0.000772173
0.000833573
0.00127356
0.00184911
0.00241763
0.00276125
0.00331555
0.00364843
0.00380348
0.00382067
0.00372754
0.00359465
0.00343976
0.00327433
0.00310439
0.00292804
0.00274894
0.00255035
0.00233344
0.00210995
0.00191423
0.00175778
0.0016422
0.00156799
0.00152809
0.00151092
0.00149913
0.00146227
0.00130162
0.00105195
0.000842247
0.000849621
0.00127821
0.00190944
0.00256955
0.00288296
0.00342136
0.00376869
0.00394865
0.00399596
0.00394721
0.00382977
0.00368407
0.0035205
0.00335014
0.00317021
0.00298591
0.00278109
0.00255501
0.00232301
0.002119
0.00195464
0.00183149
0.00174974
0.00170442
0.00168384
0.00167151
0.00162835
0.00145042
0.00117467
0.000922218
0.000878668
0.00125987
0.00193902
0.00267434
0.00297191
0.00349224
0.00385053
0.00405365
0.0041265
0.0041064
0.00401721
0.00388454
0.00372581
0.00355763
0.00337992
0.00319038
0.00298537
0.00275493
0.00251854
0.00230939
0.00213906
0.00201013
0.00192151
0.00187116
0.00184759
0.00183583
0.00178673
0.00159405
0.00129669
0.00100901
0.000914004
0.00123617
0.00194647
0.00273803
0.00302314
0.00352978
0.00389737
0.00412292
0.00422189
0.00422538
0.00416204
0.00404704
0.00389571
0.00373202
0.00355828
0.00337124
0.00316327
0.00293487
0.00269819
0.00248658
0.00231196
0.00217859
0.00208396
0.00202903
0.00200287
0.00199254
0.00193782
0.00173264
0.00141721
0.00110066
0.000952848
0.00121599
0.00193975
0.00276655
0.00302761
0.00353349
0.00391316
0.00416117
0.0042868
0.0043141
0.0042732
0.00417877
0.00403445
0.00387721
0.00370945
0.00352808
0.00332259
0.00309522
0.00286347
0.00265151
0.00247406
0.00233716
0.00223784
0.00217876
0.00215038
0.00214215
0.0020822
0.0018665
0.00153569
0.00119661
0.00100258
0.00120359
0.00192064
0.0027673
0.00297361
0.00350245
0.00390176
0.00417211
0.00432513
0.00437606
0.00435614
0.00428228
0.00415212
0.00399723
0.0038375
0.00366331
0.00346472
0.00324367
0.00301555
0.00280487
0.002626
0.00248638
0.00238363
0.00232093
0.00229082
0.00228515
0.00222049
0.00199612
0.00165158
0.00129642
0.00106126
0.00120486
0.00189473
0.00275149
0.00285923
0.00343322
0.00386513
0.0041597
0.00434005
0.00441395
0.00441475
0.00436047
0.00425214
0.00410182
0.00394567
0.00378035
0.00359142
0.00337891
0.0031568
0.00294899
0.00276871
0.00262706
0.0025217
0.00245595
0.00242489
0.00242194
0.00235327
0.00212205
0.00176573
0.00139449
0.00112285
0.00121856
0.00186786
0.00271764
0.00270338
0.00331725
0.00380373
0.00412743
0.00433383
0.00443175
0.00445244
0.0044161
0.0043278
0.00419506
0.00404061
0.00388225
0.00370494
0.00350235
0.00328745
0.0030834
0.00290365
0.00275994
0.0026524
0.00258416
0.00255324
0.0025527
0.00248087
0.00224486
0.00187921
0.00149278
0.00118913
0.0012422
0.0018452
0.00267686
0.00252345
0.00317168
0.00370423
0.00407576
0.00430962
0.00443275
0.00447254
0.00445386
0.00438496
0.00426604
0.00412565
0.00397271
0.00380735
0.0036153
0.00340837
0.00320846
0.00303076
0.00288539
0.00277591
0.00270571
0.00267648
0.00267713
0.00260317
0.00236488
0.00199267
0.00159248
0.00126376
0.00127553
0.00182843
0.00263589
0.00233509
0.00301203
0.00358071
0.00400197
0.00427089
0.00441926
0.00447838
0.00447696
0.00442557
0.00432508
0.00419903
0.00405507
0.00390015
0.00371889
0.00352024
0.00332577
0.00314904
0.0030032
0.0028919
0.00282036
0.00279352
0.00279395
0.00271922
0.00248172
0.00210605
0.0016942
0.00134557
0.00131645
0.00181815
0.0025973
0.00215117
0.00284752
0.0034439
0.003907
0.00421942
0.00439382
0.00447377
0.00448844
0.00445315
0.00437308
0.00425942
0.00412945
0.00398443
0.0038135
0.00362314
0.00343364
0.00325899
0.00311282
0.00299938
0.00292706
0.00290177
0.00290052
0.00282678
0.00259359
0.00221822
0.00179776
0.00143417
0.00135643
0.0018192
0.00256328
0.00197831
0.00268668
0.00330262
0.00379941
0.00415021
0.0043611
0.0044605
0.00449114
0.00447189
0.00441033
0.00431032
0.0041945
0.00406001
0.00389831
0.00371584
0.00353126
0.00335866
0.00321205
0.00309641
0.00302294
0.00299699
0.00299197
0.00292194
0.00269666
0.00232656
0.00190243
0.00152728
0.00140683
0.00182796
0.00253497
0.00182283
0.00253649
0.00316418
0.00368629
0.00407007
0.0043188
0.00444103
0.00448713
0.00448387
0.00443827
0.004354
0.00424769
0.00412121
0.00396975
0.00379436
0.00361404
0.00344309
0.0032957
0.00317775
0.00310264
0.003072
0.00306115
0.00299719
0.00278422
0.00242596
0.0020057
0.0016206
0.00146884
0.00184382
0.0025126
0.00169231
0.00240247
0.00303431
0.00357348
0.0039838
0.00426426
0.00441564
0.0044755
0.00448777
0.0044543
0.00438377
0.00428249
0.00416559
0.00402005
0.00384958
0.00367203
0.00350198
0.00335373
0.00323187
0.00315316
0.00311521
0.0030974
0.00304057
0.0028461
0.00250846
0.00209861
0.00171093
0.00153904
0.00186785
0.00249754
0.00159426
0.0022883
0.00291696
0.0034654
0.0038948
0.00420121
0.00438514
0.00445454
0.00447057
0.00444965
0.00438673
0.00428823
0.00417255
0.00403279
0.00386369
0.00368685
0.00351761
0.0033646
0.00324
0.0031549
0.00310943
0.00308624
0.00303686
0.00286903
0.00256382
0.00217428
0.00179316
0.00160594
0.00190789
0.00249218
0.00153354
0.00219536
0.00281374
0.00336443
0.00380403
0.00411451
0.00429808
0.00439182
0.00442221
0.00440171
0.00433891
0.00424015
0.0041172
0.00397546
0.00380816
0.00363084
0.003459
0.00330226
0.00317525
0.00308598
0.00303619
0.0030122
0.0029716
0.00283956
0.00258085
0.00222393
0.00186263
0.00166743
0.00195417
0.00248935
0.00151017
0.0021234
0.00272332
0.00324774
0.00365181
0.00394067
0.00415311
0.00427081
0.00430186
0.00426945
0.00419886
0.00409597
0.00396444
0.00381395
0.00364718
0.00347329
0.00330125
0.0031484
0.00302502
0.00293849
0.0028907
0.00287027
0.00284136
0.002752
0.00255225
0.00223991
0.00191126
0.00172185
0.00198884
0.00248292
0.00151673
0.00206697
0.00259952
0.00305848
0.00343623
0.00372864
0.00392431
0.0040264
0.00403824
0.00399619
0.00392067
0.00381686
0.00368696
0.00353754
0.00337504
0.00321671
0.00306525
0.00293021
0.002821
0.00274472
0.0027025
0.00268618
0.0026722
0.002622
0.00248404
0.0022229
0.0019361
0.00176616
0.00200865
0.00244975
0.00156564
0.00199121
0.00244624
0.0028473
0.00316231
0.00339923
0.00355141
0.00362097
0.00361695
0.00357437
0.00350772
0.00342196
0.00331711
0.00319732
0.00306651
0.00294351
0.00283336
0.00273394
0.00265036
0.00259042
0.0025548
0.00253864
0.00252853
0.00249845
0.00240505
0.00219527
0.00194446
0.00179147
0.00199794
0.00234369
0.00159531
0.00191115
0.00224934
0.00255139
0.00278539
0.00295964
0.00307775
0.00314378
0.00315509
0.00314015
0.00310815
0.00306255
0.00300373
0.00293473
0.00285871
0.00278574
0.00272103
0.00266045
0.00260411
0.00255915
0.00252671
0.00250391
0.00248366
0.0024504
0.00237355
0.00220444
0.00196858
0.00180516
0.00192716
0.00217352
0.00166145
0.00184778
0.00209457
0.00231114
0.00248868
0.00263152
0.00274216
0.00282313
0.00286396
0.00288446
0.00288992
0.00288282
0.00286506
0.0028389
0.0028057
0.00276966
0.00273165
0.00269049
0.00265116
0.00261609
0.00258716
0.00256278
0.00253825
0.00250355
0.00243818
0.00230365
0.0020912
0.00190002
0.00191374
0.00206987
0.001991
0.00208381
0.0022463
0.00239011
0.00251113
0.0026121
0.00269625
0.00276268
0.00280344
0.00282953
0.00284368
0.00284655
0.00283834
0.0028205
0.0027931
0.00276369
0.00273499
0.00270644
0.00267975
0.00265679
0.00263899
0.00262504
0.0026106
0.00258806
0.00254432
0.0024617
0.00233353
0.00218832
0.00216007
0.00224141
0.00246745
0.00249811
0.00255099
0.00260143
0.00264923
0.0026916
0.0027279
0.00275644
0.00277375
0.00278253
0.00278528
0.00278359
0.0027789
0.00276416
0.00273971
0.00271464
0.00269398
0.00267729
0.00266612
0.00266108
0.00266114
0.00266443
0.00266737
0.0026671
0.00265785
0.00263489
0.00259915
0.00254665
0.0025384
0.00255565
0.00022515
0.000239409
0.000238694
0.00023417
0.000226811
0.000217653
0.000207487
0.000196932
0.000186397
0.000176191
0.000166465
0.000157372
0.000148907
0.000140912
0.000132269
0.000122515
0.000111938
0.000101396
9.14515e-05
8.24194e-05
7.21222e-05
0.000368491
6.88253e-05
0.000313512
8.31409e-05
9.75619e-05
0.000111102
0.00011902
0.000127013
0.000147197
0.00102219
0.00124657
0.00128725
0.00124438
0.00116436
0.00107468
0.000988039
0.000907929
0.000833637
0.000763624
0.000695501
0.00062834
0.000556724
0.000478402
0.000406847
0.000360885
0.000339785
0.00034181
0.000356636
0.000375003
0.00040045
0.000492654
0.00038547
0.000302753
0.000300915
0.000459388
0.000625508
0.000778574
0.000864237
0.000895679
0.00172134
0.0021663
0.00232665
0.00232264
0.00222025
0.00208215
0.00193451
0.00179002
0.00165008
0.00151399
0.00137887
0.00124313
0.00109604
0.00093659
0.00079278
0.000700511
0.000656679
0.000654878
0.000677643
0.000704765
0.000750884
0.000827658
0.000711052
0.00051511
0.00048346
0.000678454
0.000956017
0.00125188
0.00145923
0.00154146
0.00224714
0.00288759
0.00314497
0.00319425
0.00310066
0.00294553
0.00276466
0.00257792
0.00238977
0.00220171
0.00201219
0.00181863
0.00160334
0.00137323
0.00116927
0.00103934
0.000974775
0.000966126
0.000990301
0.00102249
0.0010725
0.00113287
0.000990616
0.000730798
0.000620607
0.000781956
0.00111558
0.00154263
0.00189286
0.00205847
0.00267625
0.00344571
0.00379457
0.00388819
0.00381707
0.00365958
0.0034635
0.00325008
0.00302808
0.00280175
0.00257126
0.00232466
0.00205394
0.00176874
0.00151875
0.00136072
0.00128011
0.00126466
0.00128846
0.00132363
0.00137338
0.00141668
0.00125246
0.000946633
0.000752591
0.000845468
0.0012086
0.00176601
0.00225452
0.00251161
0.00303841
0.00384081
0.00430093
0.00444064
0.00439963
0.00424852
0.00404862
0.00381918
0.00357396
0.00332002
0.00305416
0.00276882
0.00245455
0.00212592
0.00184224
0.00166426
0.001572
0.00154999
0.00157244
0.00160936
0.00165819
0.00168663
0.00150403
0.00116377
0.000892657
0.00090408
0.00126905
0.00192653
0.00255762
0.00292076
0.00332288
0.00411851
0.00462883
0.00487823
0.00486936
0.00473516
0.00453761
0.0043006
0.00403982
0.00376582
0.00347208
0.00315923
0.00281224
0.00245018
0.00214431
0.00195299
0.00185216
0.00182344
0.00184371
0.00188184
0.00193033
0.00194575
0.00174728
0.00138094
0.00104711
0.000977468
0.00130891
0.00204086
0.00280174
0.00328734
0.00356776
0.00436006
0.00488976
0.00516521
0.00524294
0.00513528
0.00494455
0.0047077
0.0044369
0.00414867
0.00383634
0.00350234
0.00313333
0.00274808
0.00242967
0.00222996
0.00212252
0.00208664
0.00210367
0.0021426
0.00219278
0.0021946
0.00198191
0.00159555
0.00121216
0.00107088
0.00133751
0.00212145
0.00299468
0.00360712
0.00379155
0.00456953
0.00510892
0.0054053
0.00550577
0.00545885
0.00528138
0.00505081
0.00477493
0.00447742
0.00415591
0.00380359
0.00342119
0.00302543
0.00270229
0.00249772
0.00238469
0.00234098
0.00235365
0.00239274
0.00244674
0.00243274
0.00220722
0.0018052
0.00138307
0.00117663
0.00138172
0.00217884
0.00314416
0.00387794
0.0039875
0.00474555
0.00528749
0.00560259
0.00572471
0.00569876
0.00555809
0.00533815
0.00506302
0.00476025
0.00443408
0.00407386
0.00368098
0.00328672
0.0029653
0.00275821
0.00263961
0.00258785
0.00259458
0.00263316
0.00268994
0.00265937
0.002422
0.00200798
0.0015561
0.00129025
0.00144182
0.00222567
0.00325716
0.0040987
0.00414585
0.0048837
0.00542615
0.00576052
0.00590399
0.00589798
0.00578224
0.0055785
0.00530802
0.00500374
0.0046772
0.0043172
0.00391988
0.00353517
0.00322088
0.0030127
0.00288801
0.00282801
0.00282709
0.00286463
0.00292104
0.00287312
0.00262495
0.00220221
0.00172751
0.00140749
0.00151415
0.00226349
0.00333957
0.00427329
0.00425715
0.00497936
0.00552706
0.00588085
0.00604744
0.00606162
0.0059649
0.00578226
0.00551449
0.00521353
0.00489076
0.00453692
0.00414698
0.00377433
0.00347066
0.00326197
0.00313054
0.00306167
0.00305144
0.0030877
0.00313881
0.00307272
0.00281479
0.00238633
0.00189381
0.00152838
0.0015972
0.00229746
0.0033971
0.00440595
0.00430803
0.00503178
0.00559017
0.00596307
0.00615795
0.00619334
0.00611394
0.00595146
0.0056972
0.00539701
0.00508169
0.00473851
0.00436456
0.0040084
0.0037157
0.00350627
0.00336734
0.00328865
0.00326768
0.00330219
0.00334166
0.00325677
0.0029903
0.00255879
0.00205425
0.00165456
0.00167826
0.00233485
0.00343672
0.00450146
0.00429052
0.0050367
0.00562007
0.00601454
0.00623807
0.00629714
0.00623403
0.00609039
0.00586271
0.00556413
0.00525596
0.00492696
0.00457449
0.00423868
0.00395607
0.00374529
0.00359801
0.00350831
0.00347538
0.00350497
0.00352721
0.00342349
0.00315018
0.00271792
0.0022078
0.00178291
0.00175831
0.00237611
0.00346631
0.00456693
0.0042048
0.0049918
0.00561677
0.00604092
0.00628731
0.00637581
0.00632943
0.00620196
0.00599565
0.0057157
0.00541863
0.0051059
0.00477856
0.00446221
0.0041906
0.00397784
0.00382136
0.00371901
0.00367362
0.00369203
0.00369202
0.00357031
0.00329269
0.0028624
0.00235306
0.00191283
0.00184888
0.00242044
0.00349065
0.00460924
0.00405888
0.0049018
0.00557911
0.00604382
0.0063152
0.00643055
0.00640475
0.00629315
0.00610973
0.00585419
0.00557236
0.00527817
0.00497741
0.00467908
0.00441732
0.00420162
0.00403482
0.00391764
0.00385929
0.0038584
0.00383124
0.00369358
0.00341523
0.00299141
0.00248758
0.00204246
0.00194803
0.00246935
0.00351309
0.00463314
0.00386768
0.00477504
0.00551147
0.00602244
0.00632546
0.00646455
0.00646254
0.0063684
0.00620683
0.00598031
0.00571707
0.00544384
0.00516391
0.00488847
0.00463269
0.00441226
0.00423352
0.00409906
0.00402539
0.00399672
0.00393921
0.00378822
0.00351382
0.00310291
0.00260934
0.00216846
0.00205129
0.00252569
0.00353606
0.00464662
0.00365075
0.0046226
0.00541957
0.00597968
0.00631872
0.0064803
0.00650547
0.00642995
0.00628973
0.00609084
0.00585004
0.00559825
0.00534099
0.00508163
0.00482948
0.00460186
0.0044088
0.00425514
0.00415801
0.00409627
0.0040084
0.00384769
0.00358307
0.00319297
0.00271525
0.00228771
0.00215046
0.00259568
0.00356038
0.00465167
0.00342925
0.00445701
0.00531019
0.00591821
0.00629346
0.00648213
0.00652899
0.00647661
0.00635863
0.00618711
0.00597268
0.00573146
0.00549513
0.00524774
0.00499554
0.00475723
0.00454693
0.00436954
0.0042415
0.00414407
0.00402943
0.00386441
0.00361661
0.00325627
0.00280107
0.00239421
0.00224172
0.00267613
0.00358568
0.00464995
0.00322233
0.00429136
0.00519052
0.00584036
0.00624967
0.00646763
0.00653693
0.00650176
0.00641307
0.00627013
0.00606318
0.00583376
0.00560682
0.00536941
0.00511187
0.0048586
0.00462771
0.00441971
0.00425845
0.00412681
0.00399329
0.00383142
0.00360841
0.0032873
0.00286235
0.00248196
0.00232439
0.00275534
0.00360959
0.00464121
0.00304661
0.00413885
0.00506735
0.00574713
0.00618512
0.0064306
0.00652332
0.00649504
0.00642539
0.00629168
0.00610325
0.00588361
0.0056546
0.00541739
0.0051524
0.00488125
0.00462291
0.00438672
0.00419558
0.00403817
0.00389579
0.00374555
0.00355503
0.00328173
0.00289623
0.00254725
0.00239386
0.00282318
0.00362793
0.00462098
0.00291854
0.00400769
0.00494144
0.00563976
0.00609397
0.00632485
0.00639609
0.00641815
0.00636328
0.00623465
0.00605793
0.00584742
0.0056106
0.00535958
0.00508717
0.00479959
0.00451624
0.00426283
0.00405302
0.00388392
0.00374352
0.00361233
0.00345954
0.0032394
0.00290281
0.00258736
0.00245116
0.00287259
0.00363386
0.00457754
0.00283895
0.00387762
0.00477442
0.00542803
0.0058265
0.00605762
0.00619997
0.00623807
0.00618468
0.00605643
0.00588713
0.00568427
0.00544639
0.00518272
0.00489556
0.00460428
0.00431916
0.00406581
0.00385518
0.00368898
0.00355953
0.00345101
0.0033358
0.00316856
0.00288643
0.00260213
0.00248961
0.00289455
0.00359697
0.00449038
0.00273169
0.00368391
0.00446671
0.00504222
0.00544472
0.00572512
0.00587042
0.00590458
0.00584393
0.00572228
0.00556596
0.00537698
0.00515228
0.00489393
0.00460633
0.00433022
0.00407319
0.00384294
0.00364823
0.00349636
0.00338247
0.0032948
0.00321027
0.00308778
0.00285919
0.00259796
0.0024971
0.00286425
0.00348391
0.00429877
0.00262142
0.0033816
0.00406577
0.0046007
0.00498465
0.00523458
0.00537284
0.00539696
0.00534326
0.00524364
0.00511611
0.00495843
0.00476716
0.00454367
0.00429133
0.00405305
0.00384333
0.00364986
0.00348278
0.00335067
0.00325236
0.00318
0.00311552
0.00302419
0.00284223
0.00259376
0.00247533
0.00276251
0.00327993
0.00394463
0.0025195
0.00310984
0.00363832
0.00406708
0.00439295
0.00461383
0.0047433
0.00478674
0.00476612
0.00471105
0.0046321
0.00452505
0.00438688
0.00422049
0.00402921
0.0038426
0.00367982
0.00351908
0.00338017
0.00327296
0.00319349
0.00313392
0.00308097
0.00300792
0.00286304
0.00262415
0.00245929
0.00261157
0.00302201
0.00348418
0.00236815
0.00279117
0.00318766
0.00353755
0.00381008
0.00401381
0.00415587
0.00423891
0.00426686
0.00426504
0.00423934