/*--------------------------------*- C++ -*----------------------------------*\
| =========                 |                                                 |
| \\      /  F ield         | OpenFOAM: The Open Source CFD Toolbox           |
|  \\    /   O peration     | Version:  5.0                                   |
|   \\  /    A nd           | Web:      www.OpenFOAM.org                      |
|    \\/     M anipulation  |                                                 |
\*---------------------------------------------------------------------------*/
FoamFile
{
    version     2.0;
    format      ascii;
    class       surfaceScalarField;
    location    "500/porous";
    object      phi;
}
// * * * * * * * * * * * * * * * * * * * * * * * * * * * * * * * * * * * * * //

dimensions      [1 0 -1 0 0 0 0];

internalField   nonuniform List<scalar> 
104700
(
7.63469e-05
2.58379e-06
8.7736e-05
4.58797e-05
1.53403e-06
2.89331e-05
3.349e-05
1.32405e-06
1.10657e-05
2.82039e-05
1.09915e-06
4.18698e-06
2.50882e-05
9.25619e-07
2.19e-06
2.29209e-05
7.95643e-07
1.37166e-06
2.12657e-05
6.9608e-07
9.59129e-07
1.99381e-05
6.17638e-07
7.10016e-07
1.88402e-05
5.5377e-07
5.44131e-07
1.79117e-05
5.00404e-07
4.28084e-07
1.71129e-05
4.54876e-07
3.4389e-07
1.64163e-05
4.15386e-07
2.81187e-07
1.58021e-05
3.80676e-07
2.33553e-07
1.52555e-05
3.49838e-07
1.96797e-07
1.47652e-05
3.22197e-07
1.68083e-07
1.43225e-05
2.97242e-07
1.45431e-07
1.39205e-05
2.74578e-07
1.27416e-07
1.35536e-05
2.53892e-07
1.12996e-07
1.32173e-05
2.34936e-07
1.01391e-07
1.29078e-05
2.17507e-07
9.20111e-08
1.2622e-05
2.01438e-07
8.44019e-08
1.23572e-05
1.86589e-07
7.82091e-08
1.21112e-05
1.72842e-07
7.31537e-08
1.1882e-05
1.60095e-07
6.90185e-08
1.16682e-05
1.48261e-07
6.56282e-08
1.14681e-05
1.37263e-07
6.28414e-08
1.12805e-05
1.27035e-07
6.05447e-08
1.11043e-05
1.17516e-07
5.86454e-08
1.09386e-05
1.08659e-07
5.70656e-08
1.07824e-05
1.00401e-07
5.57492e-08
1.06351e-05
9.27519e-08
5.46293e-08
1.04958e-05
8.55345e-08
5.37005e-08
1.03639e-05
7.90876e-08
5.28269e-08
1.02393e-05
7.23892e-08
5.22486e-08
1.01201e-05
6.79898e-08
5.12214e-08
1.00093e-05
5.90179e-08
5.17871e-08
9.89811e-06
6.28283e-08
4.83123e-08
9.80281e-06
3.51708e-08
6.01279e-08
9.70017e-06
7.88477e-08
2.37903e-08
-2.61501e-08
3.17482e-07
7.78123e-05
1.68802e-06
8.97501e-05
4.84263e-05
1.30124e-06
2.96188e-05
3.67847e-05
1.23874e-06
1.17269e-05
3.20157e-05
1.08313e-06
4.78499e-06
2.9323e-05
9.49937e-07
2.66843e-06
2.74966e-05
8.41374e-07
1.78063e-06
2.61194e-05
7.5101e-07
1.32234e-06
2.50213e-05
6.75267e-07
1.04048e-06
2.41151e-05
6.10633e-07
8.49259e-07
2.33484e-05
5.54653e-07
7.12519e-07
2.26869e-05
5.05547e-07
6.10776e-07
2.21076e-05
4.62015e-07
5.32743e-07
2.15937e-05
4.23087e-07
4.71409e-07
2.11333e-05
3.88025e-07
4.22202e-07
2.07173e-05
3.56253e-07
3.82026e-07
2.03385e-05
3.27318e-07
3.48722e-07
1.99914e-05
3.00857e-07
3.20741e-07
1.96718e-05
2.76578e-07
2.9695e-07
1.9376e-05
2.54237e-07
2.765e-07
1.91011e-05
2.33635e-07
2.58749e-07
1.88448e-05
2.14602e-07
2.43198e-07
1.86049e-05
1.96993e-07
2.29462e-07
1.83798e-05
1.80685e-07
2.17233e-07
1.81681e-05
1.65571e-07
2.06269e-07
1.79684e-05
1.51555e-07
1.96372e-07
1.77797e-05
1.38554e-07
1.87381e-07
1.76011e-05
1.26496e-07
1.79166e-07
1.74317e-05
1.15311e-07
1.71618e-07
1.72708e-05
1.0495e-07
1.64649e-07
1.71176e-05
9.5342e-08
1.58179e-07
1.69717e-05
8.64975e-08
1.52153e-07
1.68326e-05
7.8226e-08
1.46495e-07
1.66995e-05
7.08879e-08
1.41212e-07
1.65724e-05
6.3371e-08
1.36139e-07
1.64504e-05
5.84745e-08
1.31576e-07
1.63342e-05
4.83559e-08
1.26779e-07
1.622e-05
5.36452e-08
1.23385e-07
1.61164e-05
1.75024e-08
1.21352e-07
1.60075e-05
8.74778e-08
1.00251e-07
-1.09216e-07
3.45243e-07
7.76222e-05
1.22991e-06
8.95025e-05
4.84082e-05
1.23644e-06
2.92788e-05
3.69389e-05
1.20918e-06
1.14989e-05
3.23082e-05
1.07743e-06
4.63645e-06
2.97455e-05
9.49173e-07
2.56345e-06
2.80398e-05
8.39595e-07
1.70742e-06
2.67759e-05
7.46495e-07
1.26841e-06
2.5785e-05
6.68118e-07
9.98027e-07
2.49806e-05
6.01613e-07
8.13427e-07
2.43105e-05
5.44572e-07
6.80248e-07
2.37408e-05
4.95077e-07
5.80162e-07
2.32485e-05
4.51651e-07
5.02615e-07
2.28174e-05
4.13161e-07
4.41066e-07
2.24354e-05
3.78739e-07
3.91249e-07
2.20937e-05
3.47712e-07
3.50266e-07
2.17854e-05
3.19556e-07
3.16088e-07
2.15051e-05
2.93859e-07
2.87251e-07
2.12487e-05
2.70294e-07
2.62671e-07
2.10128e-05
2.48599e-07
2.41535e-07
2.07947e-05
2.28562e-07
2.23214e-07
2.05921e-05
2.10009e-07
2.07223e-07
2.04031e-05
1.92797e-07
1.93174e-07
2.02262e-05
1.76804e-07
1.80757e-07
2.00601e-05
1.61928e-07
1.69724e-07
1.99037e-05
1.48082e-07
1.59872e-07
1.97561e-05
1.35189e-07
1.51032e-07
1.96163e-05
1.23186e-07
1.43064e-07
1.94838e-05
1.12012e-07
1.35851e-07
1.93578e-05
1.01629e-07
1.29296e-07
1.92378e-05
9.19717e-08
1.23311e-07
1.91234e-05
8.30623e-08
1.17835e-07
1.90142e-05
7.4721e-08
1.12788e-07
1.89096e-05
6.73145e-08
1.08161e-07
1.88094e-05
5.97568e-08
1.03801e-07
1.87131e-05
5.48025e-08
9.99609e-08
1.86208e-05
4.47825e-08
9.58698e-08
1.85309e-05
4.98698e-08
9.36531e-08
1.84462e-05
1.4185e-08
8.80095e-08
1.83602e-05
8.49561e-08
8.85981e-08
-1.22906e-07
1.9851e-07
7.73814e-05
8.69141e-07
8.96461e-05
4.81319e-05
1.03757e-06
2.94483e-05
3.66931e-05
1.04579e-06
1.16022e-05
3.21097e-05
9.57493e-07
4.70331e-06
2.95979e-05
8.57848e-07
2.60315e-06
2.79412e-05
7.66352e-07
1.72993e-06
2.67235e-05
6.85063e-07
1.27908e-06
2.57762e-05
6.14509e-07
1.00093e-06
2.50129e-05
5.53423e-07
8.11467e-07
2.43818e-05
5.00329e-07
6.75354e-07
2.38494e-05
4.5387e-07
5.73609e-07
2.33929e-05
4.12902e-07
4.9523e-07
2.29962e-05
3.76493e-07
4.33365e-07
2.26475e-05
3.43895e-07
3.83546e-07
2.2338e-05
3.14512e-07
3.42738e-07
2.20609e-05
2.87866e-07
3.08819e-07
2.18109e-05
2.63575e-07
2.80265e-07
2.15839e-05
2.41328e-07
2.55957e-07
2.13766e-05
2.20878e-07
2.35058e-07
2.11862e-05
2.02019e-07
2.16929e-07
2.10105e-05
1.84584e-07
2.01076e-07
2.08478e-05
1.68434e-07
1.87111e-07
2.06964e-05
1.53451e-07
1.7473e-07
2.05551e-05
1.39536e-07
1.63682e-07
2.04228e-05
1.26605e-07
1.53771e-07
2.02986e-05
1.14586e-07
1.44833e-07
2.01816e-05
1.03418e-07
1.36735e-07
2.00712e-05
9.30455e-08
1.29362e-07
1.99668e-05
8.34304e-08
1.22625e-07
1.98678e-05
7.45167e-08
1.1644e-07
1.97738e-05
6.63274e-08
1.10749e-07
1.96843e-05
5.86983e-08
1.05479e-07
1.95991e-05
5.19838e-08
1.00616e-07
1.95176e-05
4.5182e-08
9.60333e-08
1.94396e-05
4.0876e-08
9.19187e-08
1.93647e-05
3.20729e-08
8.76208e-08
1.92923e-05
3.71849e-08
8.50624e-08
1.92226e-05
6.70632e-09
7.72419e-08
1.91496e-05
7.00208e-08
8.78448e-08
-1.01101e-07
1.00627e-07
7.72584e-05
6.76336e-07
8.96011e-05
4.79939e-05
9.27346e-07
2.93747e-05
3.65735e-05
9.71905e-07
1.14944e-05
3.20109e-05
9.16792e-07
4.6033e-06
2.95174e-05
8.35222e-07
2.51607e-06
2.78758e-05
7.5205e-07
1.65594e-06
2.66708e-05
6.7422e-07
1.2158e-06
2.57347e-05
6.0465e-07
9.45996e-07
2.49817e-05
5.43508e-07
7.62924e-07
2.43603e-05
4.90044e-07
6.31637e-07
2.38374e-05
4.43242e-07
5.33522e-07
2.33904e-05
4.02096e-07
4.57869e-07
2.30031e-05
3.6571e-07
3.98064e-07
2.26638e-05
3.33326e-07
3.49814e-07
2.23638e-05
3.04314e-07
3.10217e-07
2.20963e-05
2.78162e-07
2.77251e-07
2.18559e-05
2.54452e-07
2.49464e-07
2.16386e-05
2.32846e-07
2.25792e-07
2.1441e-05
2.13067e-07
2.05437e-07
2.12603e-05
1.94894e-07
1.8779e-07
2.10944e-05
1.78141e-07
1.72378e-07
2.09413e-05
1.62658e-07
1.5883e-07
2.07996e-05
1.4832e-07
1.46849e-07
2.06679e-05
1.35021e-07
1.36198e-07
2.05452e-05
1.22674e-07
1.26683e-07
2.04304e-05
1.11203e-07
1.18143e-07
2.03229e-05
1.00548e-07
1.10448e-07
2.02218e-05
9.06524e-08
1.03486e-07
2.01265e-05
8.1482e-08
9.71666e-08
2.00367e-05
7.29826e-08
9.14096e-08
1.99517e-05
6.51789e-08
8.61518e-08
1.98711e-05
5.7926e-08
8.13269e-08
1.97946e-05
5.15521e-08
7.69084e-08
1.97218e-05
4.51787e-08
7.28007e-08
1.96525e-05
4.11112e-08
6.9102e-08
1.95858e-05
3.33585e-08
6.53696e-08
1.95224e-05
3.75848e-08
6.30758e-08
1.94606e-05
1.33981e-08
5.50866e-08
1.93952e-05
6.37041e-08
7.16691e-08
-6.03331e-08
2.79988e-08
7.71839e-05
5.19234e-07
8.96399e-05
4.78783e-05
7.76906e-07
2.9456e-05
3.64421e-05
8.36191e-07
1.1572e-05
3.18787e-05
8.04959e-07
4.67516e-06
2.93914e-05
7.43187e-07
2.57942e-06
2.77584e-05
6.74627e-07
1.71039e-06
2.65629e-05
6.07811e-07
1.26191e-06
2.56361e-05
5.46582e-07
9.84848e-07
2.48919e-05
4.91928e-07
7.95749e-07
2.42788e-05
4.43663e-07
6.59541e-07
2.37634e-05
4.01152e-07
5.57446e-07
2.33233e-05
3.63639e-07
4.78582e-07
2.29424e-05
3.304e-07
4.16184e-07
2.26091e-05
3.00787e-07
3.65826e-07
2.23147e-05
2.74252e-07
3.24501e-07
2.20524e-05
2.50337e-07
2.90105e-07
2.18171e-05
2.28666e-07
2.61121e-07
2.16046e-05
2.08929e-07
2.36432e-07
2.14116e-05
1.90874e-07
2.152e-07
2.12354e-05
1.74296e-07
1.96786e-07
2.10738e-05
1.59025e-07
1.80692e-07
2.0925e-05
1.44922e-07
1.66528e-07
2.07875e-05
1.3187e-07
1.53986e-07
2.06599e-05
1.19774e-07
1.42814e-07
2.05412e-05
1.08552e-07
1.32811e-07
2.04305e-05
9.81362e-08
1.23813e-07
2.03269e-05
8.84705e-08
1.1568e-07
2.02297e-05
7.95054e-08
1.083e-07
2.01384e-05
7.12094e-08
1.01578e-07
2.00524e-05
6.35376e-08
9.54328e-08
1.99713e-05
5.65148e-08
8.97983e-08
1.98946e-05
5.00187e-08
8.46132e-08
1.98219e-05
4.43489e-08
7.98352e-08
1.97529e-05
3.87693e-08
7.54014e-08
1.96875e-05
3.52704e-08
7.13232e-08
1.96245e-05
2.89679e-08
6.73567e-08
1.9565e-05
3.26465e-08
6.44822e-08
1.95072e-05
1.51022e-08
5.60752e-08
1.94428e-05
5.42276e-08
7.38599e-08
-2.79158e-08
2.87497e-09
7.71344e-05
4.18799e-07
8.96327e-05
4.78011e-05
6.65806e-07
2.94444e-05
3.63597e-05
7.38728e-07
1.15389e-05
3.18013e-05
7.28504e-07
4.63483e-06
2.93215e-05
6.84088e-07
2.53887e-06
2.76961e-05
6.27792e-07
1.67223e-06
2.65073e-05
5.69486e-07
1.22714e-06
2.55861e-05
5.14088e-07
9.53663e-07
2.48466e-05
4.63518e-07
7.67969e-07
2.42372e-05
4.18245e-07
6.348e-07
2.3725e-05
3.78059e-07
5.3532e-07
2.32875e-05
3.42468e-07
4.58663e-07
2.29089e-05
3.10906e-07
3.98102e-07
2.25776e-05
2.82818e-07
3.49261e-07
2.22849e-05
2.57707e-07
3.09187e-07
2.20243e-05
2.35142e-07
2.7582e-07
2.17905e-05
2.14761e-07
2.47685e-07
2.15795e-05
1.96262e-07
2.237e-07
2.13879e-05
1.79393e-07
2.03056e-07
2.12131e-05
1.6395e-07
1.85137e-07
2.10529e-05
1.49762e-07
1.69467e-07
2.09055e-05
1.36689e-07
1.55667e-07
2.07693e-05
1.24615e-07
1.43443e-07
2.06431e-05
1.13443e-07
1.32556e-07
2.05257e-05
1.03093e-07
1.2281e-07
2.04163e-05
9.34965e-08
1.14047e-07
2.0314e-05
8.45993e-08
1.06135e-07
2.02182e-05
7.63536e-08
9.89613e-08
2.01283e-05
6.873e-08
9.24402e-08
2.00436e-05
6.1687e-08
8.64874e-08
1.99639e-05
5.52484e-08
8.10402e-08
1.98885e-05
4.93142e-08
7.60412e-08
1.98173e-05
4.41462e-08
7.14399e-08
1.97497e-05
3.91528e-08
6.7203e-08
1.96857e-05
3.59896e-08
6.32711e-08
1.96243e-05
3.0833e-08
5.95788e-08
1.95665e-05
3.36821e-08
5.67004e-08
1.95115e-05
2.13854e-08
4.87303e-08
1.94491e-05
5.03066e-08
6.63331e-08
-1.97234e-09
-1.65504e-08
7.71072e-05
3.33323e-07
8.9645e-05
4.77479e-05
5.50838e-07
2.94742e-05
3.62918e-05
6.23614e-07
1.15713e-05
3.17276e-05
6.24066e-07
4.66859e-06
2.92469e-05
5.91962e-07
2.57284e-06
2.76232e-05
5.46644e-07
1.70482e-06
2.64375e-05
4.97717e-07
1.25747e-06
2.55201e-05
4.50164e-07
9.81379e-07
2.47843e-05
4.06178e-07
7.93047e-07
2.41787e-05
3.66495e-07
6.57389e-07
2.367e-05
3.31119e-07
5.55649e-07
2.32357e-05
2.99725e-07
4.76991e-07
2.28601e-05
2.71867e-07
4.14686e-07
2.25315e-05
2.47081e-07
3.64337e-07
2.22413e-05
2.24938e-07
3.22969e-07
2.19829e-05
2.05059e-07
2.8849e-07
2.17511e-05
1.87122e-07
2.594e-07
2.15419e-05
1.70856e-07
2.34594e-07
2.13521e-05
1.56037e-07
2.13238e-07
2.11788e-05
1.42481e-07
1.94697e-07
2.10201e-05
1.30035e-07
1.7848e-07
2.0874e-05
1.18574e-07
1.64199e-07
2.07391e-05
1.07994e-07
1.51544e-07
2.0614e-05
9.82102e-08
1.40267e-07
2.04978e-05
8.91499e-08
1.30166e-07
2.03895e-05
8.07545e-08
1.21076e-07
2.02882e-05
7.2976e-08
1.1286e-07
2.01934e-05
6.57735e-08
1.05404e-07
2.01044e-05
5.91222e-08
9.86127e-08
2.00207e-05
5.29892e-08
9.24066e-08
1.99418e-05
4.73972e-08
8.67146e-08
1.98674e-05
4.22696e-08
8.14841e-08
1.97971e-05
3.7832e-08
7.66515e-08
1.97304e-05
3.36293e-08
7.22053e-08
1.96673e-05
3.10049e-08
6.80274e-08
1.96069e-05
2.70744e-08
6.41896e-08
1.95502e-05
2.94727e-08
6.09149e-08
1.94971e-05
2.15121e-08
5.29489e-08
1.94344e-05
4.33699e-08
6.96961e-08
1.17011e-08
-1.89198e-08
7.70866e-05
2.69007e-07
8.96444e-05
4.77072e-05
4.56066e-07
2.94742e-05
3.62416e-05
5.26899e-07
1.15623e-05
3.16757e-05
5.36106e-07
4.65387e-06
2.91969e-05
5.15226e-07
2.55554e-06
2.75768e-05
4.80367e-07
1.68639e-06
2.63951e-05
4.40407e-07
1.23897e-06
2.54816e-05
4.00232e-07
9.63467e-07
2.47494e-05
3.62255e-07
7.76108e-07
2.41468e-05
3.27491e-07
6.41601e-07
2.36407e-05
2.96198e-07
5.41064e-07
2.32086e-05
2.68254e-07
4.63577e-07
2.28347e-05
2.43365e-07
4.02366e-07
2.25076e-05
2.21179e-07
3.53015e-07
2.22186e-05
2.01349e-07
3.12539e-07
2.19613e-05
1.83553e-07
2.78852e-07
2.17304e-05
1.67513e-07
2.50457e-07
2.15221e-05
1.52989e-07
2.26259e-07
2.13329e-05
1.39779e-07
2.05435e-07
2.11603e-05
1.27717e-07
1.87362e-07
2.10021e-05
1.16661e-07
1.71555e-07
2.08565e-05
1.06497e-07
1.57633e-07
2.07221e-05
9.71292e-08
1.45297e-07
2.05975e-05
8.84777e-08
1.34304e-07
2.04818e-05
8.04766e-08
1.24459e-07
2.03738e-05
7.30709e-08
1.15599e-07
2.0273e-05
6.62165e-08
1.07594e-07
2.01786e-05
5.9876e-08
1.00331e-07
2.009e-05
5.40267e-08
9.37175e-08
2.00066e-05
4.86409e-08
8.76774e-08
1.99281e-05
4.3738e-08
8.21427e-08
1.98541e-05
3.92603e-08
7.70621e-08
1.97842e-05
3.53958e-08
7.23679e-08
1.97179e-05
3.1804e-08
6.80703e-08
1.96554e-05
2.95431e-08
6.40029e-08
1.95956e-05
2.64974e-08
6.03545e-08
1.95396e-05
2.83281e-08
5.70919e-08
1.94884e-05
2.32588e-08
4.95353e-08
1.94268e-05
3.91891e-08
6.57482e-08
2.01937e-08
-2.54689e-08
7.7075e-05
2.11937e-07
8.96488e-05
4.76803e-05
3.65207e-07
2.94855e-05
3.62044e-05
4.27615e-07
1.15751e-05
3.16333e-05
4.39349e-07
4.66786e-06
2.91524e-05
4.25255e-07
2.57086e-06
2.75322e-05
3.98263e-07
1.70232e-06
2.63516e-05
3.66073e-07
1.25491e-06
2.54398e-05
3.33062e-07
9.79004e-07
2.47096e-05
3.01508e-07
7.9096e-07
2.4109e-05
2.72445e-07
6.55608e-07
2.36049e-05
2.46202e-07
5.54153e-07
2.31747e-05
2.22743e-07
4.75738e-07
2.28025e-05
2.01853e-07
4.13628e-07
2.2477e-05
1.83251e-07
3.63432e-07
2.21896e-05
1.66646e-07
3.22178e-07
2.19336e-05
1.51769e-07
2.87782e-07
2.17039e-05
1.38379e-07
2.58751e-07
2.14967e-05
1.26271e-07
2.33982e-07
2.13085e-05
1.15273e-07
2.12651e-07
2.11369e-05
1.05239e-07
1.94124e-07
2.09796e-05
9.60516e-08
1.77915e-07
2.08348e-05
8.76104e-08
1.63633e-07
2.07011e-05
7.98343e-08
1.50977e-07
2.05773e-05
7.26562e-08
1.39696e-07
2.04621e-05
6.60202e-08
1.2959e-07
2.03548e-05
5.98805e-08
1.20496e-07
2.02546e-05
5.42005e-08
1.12274e-07
2.01607e-05
4.89498e-08
1.04816e-07
2.00726e-05
4.41104e-08
9.80211e-08
1.99897e-05
3.96615e-08
9.18122e-08
1.99117e-05
3.56204e-08
8.61179e-08
1.98382e-05
3.19469e-08
8.08889e-08
1.97687e-05
2.87943e-08
7.6051e-08
1.9703e-05
2.59197e-08
7.16247e-08
1.9641e-05
2.41377e-08
6.74073e-08
1.95819e-05
2.19433e-08
6.36706e-08
1.95266e-05
2.34622e-08
6.01712e-08
1.94766e-05
2.05506e-08
5.26413e-08
1.9415e-05
3.25147e-08
6.83444e-08
2.16969e-08
-2.46779e-08
7.70659e-05
1.63594e-07
8.96492e-05
4.76591e-05
2.84858e-07
2.94871e-05
3.61757e-05
3.3775e-07
1.15733e-05
3.16013e-05
3.5061e-07
4.66307e-06
2.91199e-05
3.4239e-07
2.56427e-06
2.75008e-05
3.22914e-07
1.69443e-06
2.63223e-05
2.98448e-07
1.2462e-06
2.54128e-05
2.72676e-07
9.69888e-07
2.46849e-05
2.47616e-07
7.8177e-07
2.40865e-05
2.24259e-07
6.4658e-07
2.35843e-05
2.0299e-07
5.45444e-07
2.31557e-05
1.8386e-07
4.67443e-07
2.2785e-05
1.66751e-07
4.05796e-07
2.24607e-05
1.5147e-07
3.56081e-07
2.21743e-05
1.37805e-07
3.153e-07
2.19191e-05
1.25548e-07
2.8136e-07
2.16902e-05
1.14511e-07
2.52756e-07
2.14836e-05
1.04531e-07
2.28382e-07
2.1296e-05
9.54681e-08
2.07411e-07
2.11248e-05
8.72057e-08
1.89213e-07
2.09679e-05
7.96451e-08
1.73298e-07
2.08235e-05
7.27047e-08
1.59285e-07
2.06902e-05
6.63171e-08
1.46867e-07
2.05666e-05
6.04253e-08
1.35802e-07
2.04518e-05
5.49834e-08
1.25891e-07
2.03447e-05
4.99528e-08
1.16972e-07
2.02447e-05
4.53024e-08
1.08912e-07
2.0151e-05
4.10072e-08
1.01597e-07
2.00632e-05
3.70521e-08
9.49367e-08
1.99806e-05
3.34202e-08
8.88512e-08
1.99028e-05
3.01259e-08
8.32712e-08
1.98294e-05
2.71412e-08
7.815e-08
1.97602e-05
2.45848e-08
7.341e-08
1.96948e-05
2.22891e-08
6.90829e-08
1.96331e-05
2.08564e-08
6.4945e-08
1.95745e-05
1.92488e-08
6.13295e-08
1.95197e-05
2.03687e-08
5.78547e-08
1.9471e-05
1.87084e-08
5.05783e-08
1.94103e-05
2.72143e-08
6.59991e-08
2.10367e-08
-2.80206e-08
7.70605e-05
1.18922e-07
8.96509e-05
4.76453e-05
2.08343e-07
2.94917e-05
3.61555e-05
2.4902e-07
1.15785e-05
3.15776e-05
2.59885e-07
4.66868e-06
2.90944e-05
2.54857e-07
2.5707e-06
2.74749e-05
2.40971e-07
1.7015e-06
2.62966e-05
2.22998e-07
1.25368e-06
2.53879e-05
2.038e-07
9.77573e-07
2.46611e-05
1.8499e-07
7.89472e-07
2.40638e-05
1.67388e-07
6.54151e-07
2.35627e-05
1.51334e-07
5.52775e-07
2.31352e-05
1.36892e-07
4.74459e-07
2.27655e-05
1.23987e-07
4.12455e-07
2.24421e-05
1.12479e-07
3.62362e-07
2.21565e-05
1.02205e-07
3.21201e-07
2.19022e-05
9.3007e-08
2.86889e-07
2.1674e-05
8.47404e-08
2.57929e-07
2.14681e-05
7.72776e-08
2.33222e-07
2.12811e-05
7.05109e-08
2.11944e-07
2.11105e-05
6.43491e-08
1.93461e-07
2.09541e-05
5.87162e-08
1.77288e-07
2.08102e-05
5.35492e-08
1.63039e-07
2.06773e-05
4.87964e-08
1.50408e-07
2.05542e-05
4.44149e-08
1.3915e-07
2.04397e-05
4.03691e-08
1.29064e-07
2.03331e-05
3.66305e-08
1.19986e-07
2.02334e-05
3.31756e-08
1.11781e-07
2.01401e-05
2.99861e-08
1.04334e-07
2.00526e-05
2.70508e-08
9.75525e-08
1.99703e-05
2.43583e-08
9.1357e-08
1.98928e-05
2.19207e-08
8.56742e-08
1.98198e-05
1.97197e-08
8.04573e-08
1.97509e-05
1.78431e-08
7.56267e-08
1.96858e-05
1.61823e-08
7.12205e-08
1.96245e-05
1.51619e-08
6.69903e-08
1.95663e-05
1.41005e-08
6.33164e-08
1.9512e-05
1.49627e-08
5.97071e-08
1.94641e-05
1.41709e-08
5.24322e-08
1.94035e-05
2.02227e-08
6.75938e-08
1.69789e-08
-2.73188e-08
7.70565e-05
7.7916e-08
8.96512e-05
4.7635e-05
1.3693e-07
2.94929e-05
3.61408e-05
1.64867e-07
1.15784e-05
3.15604e-05
1.72951e-07
4.66733e-06
2.90763e-05
1.70477e-07
2.56847e-06
2.74569e-05
1.61877e-07
1.6985e-06
2.62795e-05
1.50343e-07
1.25007e-06
2.53719e-05
1.37812e-07
9.73537e-07
2.46463e-05
1.25401e-07
7.85171e-07
2.40503e-05
1.13697e-07
6.49725e-07
2.35503e-05
1.02959e-07
5.48337e-07
2.31239e-05
9.32552e-08
4.70093e-07
2.27551e-05
8.45519e-08
4.08223e-07
2.24325e-05
7.67675e-08
3.58303e-07
2.21476e-05
6.98022e-08
3.17338e-07
2.18938e-05
6.35556e-08
2.83234e-07
2.16661e-05
5.79336e-08
2.54484e-07
2.14606e-05
5.28541e-08
2.29982e-07
2.12739e-05
4.82459e-08
2.08897e-07
2.11036e-05
4.40484e-08
1.90598e-07
2.09475e-05
4.02111e-08
1.74597e-07
2.08039e-05
3.66921e-08
1.60504e-07
2.06712e-05
3.34558e-08
1.48019e-07
2.05483e-05
3.04737e-08
1.36892e-07
2.0434e-05
2.77215e-08
1.26925e-07
2.03275e-05
2.51791e-08
1.17956e-07
2.0228e-05
2.28311e-08
1.0985e-07
2.01348e-05
2.06646e-08
1.02493e-07
2.00474e-05
1.86723e-08
9.57946e-08
1.99652e-05
1.68463e-08
8.96748e-08
1.98879e-05
1.51942e-08
8.40607e-08
1.9815e-05
1.37055e-08
7.89093e-08
1.97463e-05
1.24375e-08
7.41367e-08
1.96813e-05
1.13246e-08
6.97886e-08
1.96203e-05
1.06361e-08
6.56064e-08
1.95624e-05
9.96183e-09
6.20004e-08
1.95084e-05
1.05046e-08
5.84097e-08
1.94612e-05
1.01255e-08
5.12701e-08
1.94013e-05
1.38808e-08
6.62911e-08
1.21881e-08
-2.91299e-08
7.70544e-05
3.84663e-08
8.96517e-05
4.76291e-05
6.76209e-08
2.94946e-05
3.61318e-05
8.17628e-08
1.15803e-05
3.15496e-05
8.58605e-08
4.66932e-06
2.90645e-05
8.47275e-08
2.57081e-06
2.74448e-05
8.04672e-08
1.70115e-06
2.62675e-05
7.4698e-08
1.25298e-06
2.53602e-05
6.84021e-08
9.76629e-07
2.46351e-05
6.21538e-08
7.88373e-07
2.40396e-05
5.6259e-08
6.52965e-07
2.35401e-05
5.08536e-08
5.51555e-07
2.31142e-05
4.59753e-08
4.73243e-07
2.27459e-05
4.16077e-08
4.11266e-07
2.24237e-05
3.77099e-08
3.61216e-07
2.21392e-05
3.42301e-08
3.20106e-07
2.18858e-05
3.11162e-08
2.85849e-07
2.16584e-05
2.83199e-08
2.56946e-07
2.14532e-05
2.57981e-08
2.32295e-07
2.12668e-05
2.35139e-08
2.11066e-07
2.10968e-05
2.14359e-08
1.92633e-07
2.0941e-05
1.95387e-08
1.76505e-07
2.07976e-05
1.78004e-08
1.62296e-07
2.06651e-05
1.62031e-08
1.49702e-07
2.05424e-05
1.47318e-08
1.38477e-07
2.04283e-05
1.33744e-08
1.28422e-07
2.0322e-05
1.21215e-08
1.19371e-07
2.02227e-05
1.09647e-08
1.1119e-07
2.01297e-05
9.89784e-09
1.03765e-07
2.00425e-05
8.91688e-09
9.70044e-08
1.99605e-05
8.01905e-09
9.08276e-08
1.98833e-05
7.20752e-09
8.51602e-08
1.98105e-05
6.47797e-09
7.99615e-08
1.9742e-05
5.85883e-09
7.51429e-08
1.96772e-05
5.31971e-09
7.07554e-08
1.96163e-05
4.99147e-09
6.65287e-08
1.95587e-05
4.68363e-09
6.2892e-08
1.9505e-05
4.9687e-09
5.92395e-08
1.94582e-05
4.85231e-09
5.20953e-08
1.93984e-05
6.72475e-09
6.6993e-08
6.05543e-09
-2.88518e-08
7.70533e-05
-1.23705e-13
8.96518e-05
4.76259e-05
-6.25092e-14
2.9495e-05
3.61273e-05
-2.89569e-14
1.15804e-05
3.15442e-05
3.73144e-14
4.66896e-06
2.90587e-05
-8.138e-14
2.57016e-06
2.7439e-05
-2.89572e-13
1.70023e-06
2.62619e-05
-4.31533e-14
1.25181e-06
2.5355e-05
-6.42358e-14
9.75263e-07
2.46303e-05
-2.52044e-13
7.86864e-07
2.40352e-05
-1.51718e-13
6.51362e-07
2.35362e-05
-2.60027e-14
5.49898e-07
2.31106e-05
-1.35923e-13
4.71567e-07
2.27426e-05
-3.28004e-14
4.09598e-07
2.24207e-05
-3.06328e-14
3.59577e-07
2.21364e-05
-2.38729e-15
3.18512e-07
2.18832e-05
-1.7204e-13
2.84307e-07
2.16561e-05
-6.14747e-14
2.55462e-07
2.1451e-05
-2.02204e-13
2.30871e-07
2.12648e-05
-1.18998e-13
2.09705e-07
2.10949e-05
-7.83391e-14
1.91331e-07
2.09392e-05
-2.04864e-13
1.7526e-07
2.07959e-05
4.22911e-14
1.61107e-07
2.06635e-05
-9.96048e-14
1.48564e-07
2.05409e-05
-1.30845e-13
1.37387e-07
2.04269e-05
2.57876e-13
1.27376e-07
2.03206e-05
-3.89412e-14
1.18369e-07
2.02214e-05
8.36899e-14
1.10226e-07
2.01284e-05
1.51622e-13
1.02838e-07
2.00412e-05
2.24515e-14
9.611e-08
1.99593e-05
7.40699e-14
8.99648e-08
1.98822e-05
-1.77396e-13
8.43281e-08
1.98095e-05
-2.54622e-14
7.91563e-08
1.9741e-05
1.83228e-14
7.43635e-08
1.96763e-05
1.28021e-13
7.00012e-08
1.96155e-05
9.35844e-14
6.57952e-08
1.9558e-05
-4.39637e-14
6.21886e-08
1.95044e-05
8.37875e-14
5.85461e-08
1.94578e-05
-9.48645e-14
5.14536e-08
1.93983e-05
6.9465e-14
6.62803e-08
-8.04854e-14
-2.97451e-08
7.70533e-05
-3.84662e-08
8.96518e-05
4.76259e-05
-6.76209e-08
2.9495e-05
3.61273e-05
-8.17629e-08
1.15804e-05
3.15442e-05
-8.58605e-08
4.66896e-06
2.90587e-05
-8.47276e-08
2.57015e-06
2.7439e-05
-8.04676e-08
1.70023e-06
2.62619e-05
-7.46982e-08
1.25181e-06
2.5355e-05
-6.84023e-08
9.75263e-07
2.46303e-05
-6.21541e-08
7.86864e-07
2.40352e-05
-5.62592e-08
6.51362e-07
2.35362e-05
-5.08537e-08
5.49897e-07
2.31106e-05
-4.59755e-08
4.71567e-07
2.27426e-05
-4.1608e-08
4.09598e-07
2.24207e-05
-3.77101e-08
3.59578e-07
2.21364e-05
-3.42303e-08
3.18511e-07
2.18832e-05
-3.11164e-08
2.84308e-07
2.16561e-05
-2.83199e-08
2.55464e-07
2.1451e-05
-2.57981e-08
2.30872e-07
2.12648e-05
-2.35141e-08
2.09706e-07
2.10949e-05
-2.14363e-08
1.91331e-07
2.09392e-05
-1.9539e-08
1.75261e-07
2.07959e-05
-1.78005e-08
1.61106e-07
2.06635e-05
-1.62032e-08
1.48563e-07
2.05409e-05
-1.47316e-08
1.37387e-07
2.04269e-05
-1.33748e-08
1.27377e-07
2.03206e-05
-1.21217e-08
1.18368e-07
2.02214e-05
-1.09647e-08
1.10226e-07
2.01284e-05
-9.89764e-09
1.02838e-07
2.00412e-05
-8.9169e-09
9.61097e-08
1.99593e-05
-8.01902e-09
8.99657e-08
1.98822e-05
-7.2074e-09
8.43274e-08
1.98095e-05
-6.47794e-09
7.91565e-08
1.9741e-05
-5.85875e-09
7.4363e-08
1.96763e-05
-5.31983e-09
7.00011e-08
1.96155e-05
-4.99179e-09
6.5796e-08
1.9558e-05
-4.68367e-09
6.21871e-08
1.95044e-05
-4.96899e-09
5.85475e-08
1.94578e-05
-4.85239e-09
5.14535e-08
1.93983e-05
-6.72489e-09
6.62807e-08
-6.05552e-09
-2.97451e-08
7.70544e-05
-7.79161e-08
8.96517e-05
4.76291e-05
-1.3693e-07
2.94946e-05
3.61318e-05
-1.64867e-07
1.15803e-05
3.15496e-05
-1.72952e-07
4.66932e-06
2.90645e-05
-1.70478e-07
2.5708e-06
2.74448e-05
-1.61877e-07
1.70115e-06
2.62675e-05
-1.50343e-07
1.25298e-06
2.53602e-05
-1.37812e-07
9.76629e-07
2.46351e-05
-1.25401e-07
7.88374e-07
2.40396e-05
-1.13697e-07
6.52966e-07
2.35401e-05
-1.0296e-07
5.51556e-07
2.31142e-05
-9.32554e-08
4.73243e-07
2.27459e-05
-8.45519e-08
4.11266e-07
2.24237e-05
-7.67677e-08
3.61216e-07
2.21392e-05
-6.98025e-08
3.20107e-07
2.18858e-05
-6.35555e-08
2.8585e-07
2.16584e-05
-5.79338e-08
2.56947e-07
2.14532e-05
-5.28543e-08
2.32295e-07
2.12668e-05
-4.8246e-08
2.11067e-07
2.10968e-05
-4.40486e-08
1.92633e-07
2.0941e-05
-4.02116e-08
1.76504e-07
2.07976e-05
-3.66923e-08
1.62296e-07
2.06651e-05
-3.34559e-08
1.49702e-07
2.05424e-05
-3.04739e-08
1.38478e-07
2.04283e-05
-2.77215e-08
1.28421e-07
2.0322e-05
-2.5179e-08
1.1937e-07
2.02227e-05
-2.28312e-08
1.1119e-07
2.01297e-05
-2.06647e-08
1.03766e-07
2.00425e-05
-1.86722e-08
9.70039e-08
1.99605e-05
-1.68462e-08
9.08266e-08
1.98833e-05
-1.51941e-08
8.51607e-08
1.98105e-05
-1.37054e-08
7.99605e-08
1.9742e-05
-1.2437e-08
7.51427e-08
1.96772e-05
-1.13243e-08
7.07544e-08
1.96163e-05
-1.0636e-08
6.65286e-08
1.95587e-05
-9.96172e-09
6.28934e-08
1.9505e-05
-1.05045e-08
5.92405e-08
1.94582e-05
-1.01255e-08
5.20955e-08
1.93984e-05
-1.38808e-08
6.69929e-08
-1.21881e-08
-2.88525e-08
7.70565e-05
-1.18922e-07
8.96512e-05
4.7635e-05
-2.08343e-07
2.94929e-05
3.61408e-05
-2.4902e-07
1.15784e-05
3.15604e-05
-2.59885e-07
4.66733e-06
2.90763e-05
-2.54858e-07
2.56847e-06
2.74569e-05
-2.40971e-07
1.6985e-06
2.62795e-05
-2.22998e-07
1.25007e-06
2.53719e-05
-2.038e-07
9.73537e-07
2.46463e-05
-1.8499e-07
7.8517e-07
2.40503e-05
-1.67389e-07
6.49724e-07
2.35503e-05
-1.51334e-07
5.48337e-07
2.31239e-05
-1.36892e-07
4.70094e-07
2.27551e-05
-1.23988e-07
4.08222e-07
2.24325e-05
-1.12479e-07
3.58303e-07
2.21476e-05
-1.02205e-07
3.17339e-07
2.18938e-05
-9.30073e-08
2.83234e-07
2.16661e-05
-8.47407e-08
2.54484e-07
2.14606e-05
-7.72778e-08
2.29981e-07
2.12739e-05
-7.05111e-08
2.08897e-07
2.11036e-05
-6.43494e-08
1.90598e-07
2.09475e-05
-5.87162e-08
1.74596e-07
2.08039e-05
-5.35495e-08
1.60504e-07
2.06712e-05
-4.87967e-08
1.48018e-07
2.05483e-05
-4.4415e-08
1.36891e-07
2.0434e-05
-4.03692e-08
1.26925e-07
2.03275e-05
-3.66303e-08
1.17956e-07
2.0228e-05
-3.31754e-08
1.09849e-07
2.01348e-05
-2.99859e-08
1.02496e-07
2.00474e-05
-2.70507e-08
9.57956e-08
1.99652e-05
-2.43585e-08
8.96742e-08
1.98879e-05
-2.19207e-08
8.40602e-08
1.9815e-05
-1.97197e-08
7.89103e-08
1.97463e-05
-1.78435e-08
7.41361e-08
1.96813e-05
-1.61824e-08
6.97897e-08
1.96203e-05
-1.51619e-08
6.56063e-08
1.95624e-05
-1.41005e-08
6.2001e-08
1.95084e-05
-1.49626e-08
5.84099e-08
1.94612e-05
-1.41707e-08
5.12702e-08
1.94013e-05
-2.02226e-08
6.62921e-08
-1.69788e-08
-2.91295e-08
7.70605e-05
-1.63594e-07
8.96509e-05
4.76453e-05
-2.84859e-07
2.94917e-05
3.61555e-05
-3.3775e-07
1.15785e-05
3.15776e-05
-3.50611e-07
4.66868e-06
2.90944e-05
-3.4239e-07
2.5707e-06
2.74749e-05
-3.22914e-07
1.7015e-06
2.62966e-05
-2.98448e-07
1.25368e-06
2.53879e-05
-2.72676e-07
9.77572e-07
2.46611e-05
-2.47616e-07
7.89473e-07
2.40638e-05
-2.24259e-07
6.54152e-07
2.35627e-05
-2.0299e-07
5.52775e-07
2.31352e-05
-1.8386e-07
4.7446e-07
2.27655e-05
-1.66751e-07
4.12455e-07
2.24421e-05
-1.51471e-07
3.62362e-07
2.21565e-05
-1.37805e-07
3.21201e-07
2.19022e-05
-1.25548e-07
2.86889e-07
2.1674e-05
-1.14511e-07
2.5793e-07
2.14681e-05
-1.04531e-07
2.33223e-07
2.12811e-05
-9.54683e-08
2.11944e-07
2.11105e-05
-8.72057e-08
1.93461e-07
2.09541e-05
-7.96454e-08
1.77288e-07
2.08102e-05
-7.2705e-08
1.63039e-07
2.06773e-05
-6.63171e-08
1.50409e-07
2.05542e-05
-6.04255e-08
1.3915e-07
2.04397e-05
-5.49835e-08
1.29063e-07
2.03331e-05
-4.99529e-08
1.19986e-07
2.02334e-05
-4.53024e-08
1.11781e-07
2.01401e-05
-4.10075e-08
1.04336e-07
2.00526e-05
-3.70521e-08
9.75539e-08
1.99703e-05
-3.34201e-08
9.13573e-08
1.98928e-05
-3.01258e-08
8.56736e-08
1.98198e-05
-2.71412e-08
8.04586e-08
1.97509e-05
-2.45845e-08
7.56259e-08
1.96858e-05
-2.2289e-08
7.12198e-08
1.96245e-05
-2.08566e-08
6.69908e-08
1.95663e-05
-1.92487e-08
6.33172e-08
1.9512e-05
-2.03687e-08
5.97073e-08
1.94641e-05
-1.87085e-08
5.24332e-08
1.94035e-05
-2.72142e-08
6.75936e-08
-2.10365e-08
-2.73192e-08
7.70659e-05
-2.11936e-07
8.96492e-05
4.76591e-05
-3.65208e-07
2.94871e-05
3.61757e-05
-4.27615e-07
1.15733e-05
3.16013e-05
-4.39349e-07
4.66307e-06
2.91199e-05
-4.25255e-07
2.56427e-06
2.75008e-05
-3.98263e-07
1.69443e-06
2.63223e-05
-3.66073e-07
1.2462e-06
2.54128e-05
-3.33062e-07
9.69888e-07
2.46849e-05
-3.01508e-07
7.81771e-07
2.40865e-05
-2.72444e-07
6.4658e-07
2.35843e-05
-2.46203e-07
5.45444e-07
2.31557e-05
-2.22744e-07
4.67443e-07
2.2785e-05
-2.01854e-07
4.05796e-07
2.24607e-05
-1.83251e-07
3.5608e-07
2.21743e-05
-1.66647e-07
3.15301e-07
2.19191e-05
-1.51769e-07
2.81361e-07
2.16902e-05
-1.38379e-07
2.52756e-07
2.14836e-05
-1.26272e-07
2.28382e-07
2.1296e-05
-1.15273e-07
2.07411e-07
2.11248e-05
-1.0524e-07
1.89213e-07
2.09679e-05
-9.60516e-08
1.73298e-07
2.08235e-05
-8.76106e-08
1.59285e-07
2.06902e-05
-7.98346e-08
1.46866e-07
2.05666e-05
-7.26564e-08
1.35802e-07
2.04518e-05
-6.60203e-08
1.25891e-07
2.03447e-05
-5.98807e-08
1.16973e-07
2.02447e-05
-5.42007e-08
1.08912e-07
2.0151e-05
-4.89499e-08
1.01597e-07
2.00632e-05
-4.41106e-08
9.49365e-08
1.99806e-05
-3.96615e-08
8.88517e-08
1.99028e-05
-3.56204e-08
8.32703e-08
1.98294e-05
-3.1947e-08
7.81498e-08
1.97602e-05
-2.87945e-08
7.34097e-08
1.96948e-05
-2.59199e-08
6.90835e-08
1.96331e-05
-2.41375e-08
6.49449e-08
1.95745e-05
-2.19435e-08
6.13294e-08
1.95197e-05
-2.34622e-08
5.78535e-08
1.9471e-05
-2.05503e-08
5.05791e-08
1.94103e-05
-3.25147e-08
6.59982e-08
-2.16969e-08
-2.80202e-08
7.7075e-05
-2.69007e-07
8.96488e-05
4.76803e-05
-4.56066e-07
2.94855e-05
3.62044e-05
-5.26899e-07
1.15751e-05
3.16333e-05
-5.36106e-07
4.66786e-06
2.91524e-05
-5.15226e-07
2.57086e-06
2.75322e-05
-4.80367e-07
1.70232e-06
2.63516e-05
-4.40406e-07
1.25491e-06
2.54398e-05
-4.00232e-07
9.79004e-07
2.47096e-05
-3.62255e-07
7.90961e-07
2.4109e-05
-3.27491e-07
6.55608e-07
2.36049e-05
-2.96198e-07
5.54153e-07
2.31747e-05
-2.68255e-07
4.75737e-07
2.28025e-05
-2.43365e-07
4.13628e-07
2.2477e-05
-2.2118e-07
3.63433e-07
2.21896e-05
-2.01349e-07