/*--------------------------------*- C++ -*----------------------------------*\
| =========                 |                                                 |
| \\      /  F ield         | OpenFOAM: The Open Source CFD Toolbox           |
|  \\    /   O peration     | Version:  5.0                                   |
|   \\  /    A nd           | Web:      www.OpenFOAM.org                      |
|    \\/     M anipulation  |                                                 |
\*---------------------------------------------------------------------------*/
FoamFile
{
    version     2.0;
    format      ascii;
    class       volScalarField;
    location    "500/porous";
    object      T;
}
// * * * * * * * * * * * * * * * * * * * * * * * * * * * * * * * * * * * * * //

dimensions      [0 0 0 1 0 0 0];

internalField   nonuniform List<scalar> 
36000
(
400
400
400
400
399.999
399.572
399.19
398.839
398.508
398.189
397.879
397.575
397.275
396.979
396.686
396.396
396.11
395.826
395.546
395.269
394.996
394.723
394.451
394.177
393.901
393.625
393.35
393.077
392.807
392.539
392.274
392.012
391.753
391.498
391.253
391.785
392.144
392.416
392.637
392.824
400
400
400
400
399.999
399.623
399.286
398.979
398.692
398.419
398.156
397.9
397.65
397.404
397.163
396.925
396.692
396.462
396.236
396.013
395.794
395.577
395.36
395.141
394.922
394.702
394.484
394.268
394.054
393.843
393.634
393.429
393.226
393.026
392.831
393.181
393.426
393.614
393.764
393.896
400
400
400
400
399.999
399.629
399.301
399.003
398.727
398.466
398.217
397.977
397.743
397.515
397.293
397.075
396.862
396.654
396.45
396.249
396.053
395.859
395.666
395.472
395.278
395.084
394.892
394.702
394.515
394.33
394.149
393.971
393.795
393.623
393.456
393.778
394.008
394.185
394.326
394.447
400
400
400
400
399.999
399.628
399.299
399.003
398.728
398.47
398.224
397.987
397.758
397.535
397.318
397.106
396.899
396.697
396.498
396.304
396.114
395.927
395.742
395.556
395.369
395.184
395.001
394.819
394.641
394.466
394.294
394.125
393.959
393.797
393.64
393.956
394.184
394.359
394.502
394.622
400
400
400
400
399.999
399.627
399.299
399.002
398.728
398.471
398.226
397.99
397.763
397.542
397.327
397.116
396.911
396.709
396.512
396.318
396.128
395.943
395.759
395.576
395.393
395.211
395.03
394.852
394.676
394.504
394.335
394.169
394.006
393.848
393.694
394.009
394.236
394.411
394.554
394.674
400
400
400
400
399.999
399.626
399.297
399
398.726
398.468
398.223
397.989
397.762
397.543
397.328
397.119
396.913
396.711
396.512
396.316
396.126
395.939
395.756
395.573
395.391
395.21
395.031
394.854
394.679
394.507
394.339
394.174
394.013
393.855
393.703
394.017
394.244
394.419
394.562
394.683
400
400
400
400
399.999
399.626
399.296
398.999
398.726
398.468
398.224
397.99
397.765
397.547
397.334
397.124
396.918
396.714
396.513
396.316
396.123
395.936
395.752
395.57
395.389
395.209
395.031
394.854
394.68
394.509
394.341
394.176
394.015
393.857
393.705
394.019
394.246
394.421
394.564
394.685
400
400
400
400
399.999
399.625
399.296
398.999
398.725
398.468
398.224
397.991
397.767
397.551
397.338
397.127
396.92
396.714
396.511
396.312
396.117
395.928
395.743
395.561
395.381
395.202
395.025
394.849
394.675
394.504
394.336
394.172
394.01
393.853
393.701
394.015
394.242
394.417
394.56
394.68
400
400
400
400
399.999
399.626
399.296
399
398.727
398.47
398.226
397.994
397.772
397.556
397.343
397.132
396.923
396.715
396.511
396.31
396.114
395.922
395.735
395.553
395.374
395.197
395.021
394.846
394.673
394.502
394.334
394.17
394.009
393.851
393.699
394.013
394.24
394.415
394.558
394.678
400
400
400
400
399.999
399.626
399.297
399.002
398.728
398.472
398.228
397.997
397.775
397.559
397.346
397.134
396.923
396.714
396.507
396.305
396.107
395.914
395.726
395.543
395.364
395.188
395.014
394.84
394.667
394.497
394.329
394.165
394.004
393.846
393.694
394.008
394.235
394.41
394.553
394.674
400
400
400
400
399.999
399.628
399.3
399.004
398.732
398.475
398.232
398
397.779
397.563
397.349
397.136
396.924
396.713
396.505
396.302
396.103
395.908
395.718
395.535
395.356
395.181
395.008
394.836
394.664
394.494
394.327
394.163
394.002
393.844
393.692
394.006
394.233
394.408
394.551
394.671
400
400
400
400
399.999
399.628
399.302
399.007
398.734
398.478
398.234
398.003
397.781
397.565
397.35
397.136
396.922
396.71
396.501
396.298
396.099
395.903
395.712
395.528
395.349
395.175
395.003
394.832
394.661
394.491
394.324
394.16
394
393.842
393.689
394.003
394.23
394.406
394.548
394.669
400
400
400
400
399.999
399.63
399.305
399.011
398.738
398.481
398.238
398.005
397.783
397.566
397.351
397.135
396.921
396.708
396.5
396.298
396.099
395.903
395.711
395.526
395.347
395.173
395.003
394.832
394.662
394.493
394.326
394.162
394.002
393.844
393.69
394.005
394.231
394.406
394.549
394.67
400
400
400
400
399.999
399.632
399.307
399.013
398.74
398.483
398.239
398.006
397.783
397.565
397.349
397.133
396.918
396.706
396.498
396.296
396.098
395.903
395.711
395.525
395.346
395.172
395.003
394.834
394.664
394.495
394.329
394.165
394.004
393.846
393.691
394.006
394.232
394.408
394.55
394.671
400
400
400
400
399.999
399.632
399.308
399.014
398.741
398.484
398.239
398.006
397.782
397.563
397.346
397.13
396.915
396.704
396.497
396.295
396.097
395.902
395.71
395.524
395.345
395.172
395.003
394.836
394.667
394.499
394.332
394.169
394.008
393.849
393.694
394.008
394.235
394.41
394.552
394.672
400
400
400
400
399.999
399.634
399.311
399.016
398.743
398.485
398.239
398.005
397.78
397.561
397.344
397.127
396.913
396.701
396.494
396.293
396.095
395.9
395.709
395.523
395.344
395.172
395.004
394.838
394.67
394.502
394.336
394.172
394.011
393.85
393.693
394.007
394.234
394.409
394.552
394.672
400
400
400
400
399.999
399.634
399.311
399.016
398.743
398.484
398.238
398.002
397.776
397.557
397.34
397.124
396.91
396.698
396.491
396.29
396.092
395.897
395.705
395.52
395.342
395.171
395.004
394.839
394.671
394.504
394.338
394.174
394.011
393.85
393.692
394.007
394.234
394.409
394.551
394.672
400
400
400
400
399.999
399.635
399.311
399.017
398.743
398.484
398.237
398
397.774
397.554
397.337
397.122
396.908
396.696
396.489
396.288
396.09
395.894
395.703
395.519
395.342
395.172
395.006
394.841
394.674
394.506
394.34
394.176
394.013
393.85
393.691
394.006
394.233
394.408
394.551
394.672
400
400
400
400
399.999
399.635
399.312
399.017
398.742
398.483
398.235
397.998
397.771
397.55
397.334
397.12
396.907
396.696
396.489
396.287
396.089
395.893
395.703
395.52
395.344
395.174
395.009
394.843
394.676
394.509
394.342
394.177
394.013
393.849
393.687
394.003
394.231
394.407
394.549
394.67
400
400
400
400
399.999
399.635
399.312
399.017
398.742
398.482
398.235
397.997
397.769
397.548
397.332
397.119
396.908
396.699
396.492
396.291
396.093
395.898
395.709
395.527
395.351
395.182
395.016
394.85
394.682
394.514
394.347
394.181
394.016
393.851
393.689
394.005
394.233
394.409
394.552
394.672
400
400
400
400
399.999
399.636
399.312
399.017
398.742
398.482
398.234
397.996
397.766
397.545
397.33
397.118
396.909
396.702
396.497
396.296
396.099
395.905
395.717
395.536
395.36
395.19
395.023
394.856
394.687
394.519
394.351
394.184
394.018
393.852
393.687
394.005
394.233
394.409
394.552
394.673
400
400
400
400
399.999
399.636
399.313
399.018
398.743
398.482
398.234
397.995
397.766
397.544
397.328
397.118
396.911
396.706
396.504
396.304
396.108
395.915
395.728
395.547
395.371
395.2
395.031
394.863
394.694
394.524
394.356
394.188
394.022
393.854
393.69
394.008
394.236
394.413
394.556
394.677
400
400
400
400
399.999
399.636
399.313
399.018
398.743
398.483
398.234
397.995
397.764
397.542
397.326
397.116
396.911
396.708
396.508
396.31
396.115
395.924
395.738
395.556
395.38
395.206
395.036
394.866
394.696
394.526
394.357
394.189
394.022
393.854
393.69
394.008
394.237
394.413
394.557
394.678
400
400
400
400
399.999
399.637
399.314
399.019
398.744
398.484
398.235
397.996
397.765
397.542
397.326
397.117
396.912
396.712
396.514
396.318
396.124
395.934
395.749
395.567
395.389
395.214
395.042
394.87
394.699
394.529
394.36
394.192
394.024
393.857
393.692
394.01
394.24
394.416
394.56
394.681
400
400
400
400
399.999
399.637
399.314
399.019
398.745
398.484
398.235
397.996
397.765
397.541
397.325
397.115
396.911
396.713
396.517
396.322
396.13
395.94
395.755
395.573
395.393
395.216
395.041
394.868
394.696
394.526
394.357
394.189
394.021
393.853
393.689
394.007
394.237
394.414
394.558
394.679
400
400
400
400
399.999
399.638
399.315
399.021
398.747
398.487
398.238
397.998
397.767
397.543
397.326
397.116
396.913
396.715
396.52
396.327
396.135
395.946
395.76
395.576
395.395
395.216
395.039
394.864
394.691
394.52
394.35
394.181
394.013
393.845
393.68
393.999
394.228
394.405
394.549
394.67
400
400
400
400
399.999
399.638
399.316
399.021
398.746
398.486
398.236
397.996
397.763
397.538
397.32
397.108
396.904
396.705
396.51
396.316
396.123
395.932
395.744
395.557
395.372
395.189
395.009
394.831
394.655
394.48
394.308
394.136
393.965
393.794
393.626
393.946
394.176
394.354
394.497
394.618
400
400
400
400
399.999
399.638
399.316
399.02
398.744
398.481
398.229
397.985
397.749
397.519
397.296
397.079
396.869
396.665
396.464
396.264
396.064
395.866
395.67
395.474
395.281
395.089
394.9
394.712
394.527
394.344
394.162
393.981
393.801
393.621
393.443
393.769
394.001
394.179
394.322
394.444
400
400
400
400
399.999
399.631
399.3
398.995
398.707
398.432
398.167
397.908
397.656
397.408
397.167
396.93
396.7
396.475
396.252
396.029
395.807
395.585
395.364
395.144
394.925
394.708
394.492
394.279
394.067
393.857
393.648
393.441
393.233
393.025
392.821
393.175
393.422
393.611
393.761
393.894
400
400
400
400
399.999
399.581
399.204
398.854
398.522
398.201
397.889
397.582
397.28
396.982
396.689
396.402
396.119
395.841
395.564
395.287
395.01
394.733
394.456
394.18
393.905
393.631
393.359
393.09
392.822
392.556
392.291
392.028
391.764
391.5
391.242
391.779
392.14
392.413
392.636
392.823
400
400
400
400
399.999
399.773
399.518
399.248
398.97
398.688
398.404
398.12
397.836
397.553
397.27
396.989
396.709
396.431
396.155
395.881
395.609
395.338
395.068
394.797
394.525
394.252
393.979
393.707
393.437
393.169
392.904
392.641
392.38
392.122
391.871
392.119
392.357
392.569
392.756
392.92
400
400
400
400
400
399.805
399.589
399.363
399.131
398.897
398.663
398.429
398.197
397.967
397.738
397.511
397.287
397.064
396.844
396.627
396.412
396.199
395.986
395.773
395.559
395.346
395.133
394.921
394.71
394.502
394.295
394.091
393.889
393.689
393.492
393.606
393.727
393.845
393.952
394.053
400
400
400
400
400
399.809
399.6
399.382
399.16
398.938
398.717
398.499
398.283
398.07
397.859
397.652
397.447
397.246
397.048
396.853
396.66
396.47
396.282
396.093
395.905
395.717
395.53
395.344
395.16
394.978
394.799
394.622
394.447
394.275
394.107
394.208
394.317
394.423
394.52
394.612
400
400
400
400
400
399.808
399.599
399.381
399.161
398.941
398.723
398.508
398.296
398.087
397.881
397.679
397.481
397.285
397.093
396.904
396.718
396.535
396.354
396.173
395.992
395.813
395.634
395.457
395.282
395.109
394.939
394.771
394.606
394.444
394.285
394.385
394.492
394.597
394.695
394.786
400
400
400
400
400
399.808
399.599
399.381
399.161
398.941
398.724
398.51
398.299
398.092
397.888
397.688
397.491
397.297
397.106
396.918
396.733
396.551
396.371
396.193
396.015
395.838
395.662
395.488
395.316
395.146
394.979
394.814
394.652
394.493
394.338
394.437
394.545
394.649
394.747
394.838
400
400
400
400
400
399.807
399.597
399.379
399.158
398.938
398.721
398.507
398.297
398.091
397.888
397.688
397.491
397.297
397.105
396.916
396.73
396.548
396.368
396.19
396.013
395.837
395.662
395.489
395.317
395.148
394.982
394.818
394.657
394.499
394.345
394.445
394.552
394.657
394.755
394.846
400
400
400
400
400
399.807
399.597
399.378
399.158
398.938
398.721
398.508
398.299
398.094
397.892
397.692
397.495
397.3
397.107
396.917
396.73
396.546
396.366
396.188
396.011
395.835
395.661
395.488
395.318
395.149
394.983
394.819
394.659
394.501
394.347
394.447
394.554
394.659
394.757
394.848
400
400
400
400
400
399.807
399.596
399.378
399.157
398.937
398.72
398.507
398.299
398.095
397.893
397.694
397.496
397.3
397.106
396.914
396.725
396.54
396.359
396.18
396.003
395.828
395.655
395.482
395.312
395.143
394.977
394.814
394.654
394.496
394.342
394.442
394.55
394.654
394.753
394.844
400
400
400
400
400
399.807
399.597
399.378
399.158
398.938
398.722
398.509
398.302
398.098
397.897
397.697
397.499
397.302
397.106
396.913
396.723
396.537
396.354
396.174
395.998
395.823
395.65
395.479
395.309
395.141
394.975
394.812
394.651
394.494
394.34
394.44
394.547
394.652
394.751
394.842
400
400
400
400
400
399.807
399.597
399.379
399.159
398.939
398.723
398.511
398.303
398.1
397.899
397.699
397.499
397.301
397.104
396.91
396.719
396.531
396.346
396.166
395.989
395.815
395.643
395.472
395.303
395.135
394.969
394.806
394.646
394.489
394.335
394.435
394.542
394.647
394.746
394.837
400
400
400
400
400
399.808
399.599
399.381
399.161
398.942
398.725
398.513
398.307
398.103
397.902
397.701
397.501
397.301
397.103
396.908
396.716
396.527
396.341
396.16
395.983
395.809
395.638
395.468
395.299
395.132
394.966
394.804
394.644
394.486
394.332
394.432
394.54
394.645
394.743
394.835
400
400
400
400
400
399.809
399.599
399.382
399.162
398.943
398.727
398.515
398.308
398.105
397.902
397.701
397.5
397.299
397.1
396.905
396.713
396.523
396.336
396.154
395.977
395.803
395.632
395.463
395.295
395.128
394.963
394.801
394.641
394.484
394.329
394.43
394.537
394.642
394.741
394.832
400
400
400
400
400
399.809
399.601
399.385
399.165
398.946
398.73
398.518
398.31
398.106
397.904
397.701
397.499
397.298
397.1
396.905
396.713
396.523
396.336
396.153
395.975
395.802
395.632
395.463
395.295
395.129
394.964
394.802
394.642
394.485
394.33
394.431
394.538
394.643
394.741
394.833
400
400
400
400
400
399.81
399.602
399.386
399.167
398.947
398.731
398.518
398.31
398.106
397.903
397.7
397.498
397.297
397.098
396.904
396.711
396.522
396.335
396.152
395.974
395.801
395.631
395.463
395.296
395.13
394.966
394.804
394.644
394.486
394.332
394.432
394.539
394.644
394.742
394.834
400
400
400
400
400
399.811
399.603
399.387
399.167
398.948
398.731
398.518
398.31
398.105
397.901
397.698
397.495
397.295
397.097
396.902
396.71
396.521
396.334
396.152
395.974
395.8
395.631
395.464
395.298
395.132
394.968
394.807
394.647
394.489
394.334
394.434
394.541
394.646
394.744
394.836
400
400
400
400
400
399.811
399.605
399.388
399.169
398.949
398.732
398.518
398.309
398.103
397.899
397.696
397.493
397.293
397.095
396.9
396.708
396.519
396.333
396.15
395.972
395.8
395.631
395.465
395.299
395.135
394.971
394.809
394.649
394.491
394.334
394.434
394.541
394.646
394.744
394.836
400
400
400
400
400
399.812
399.605
399.389
399.169
398.949
398.731
398.517
398.307
398.101
397.896
397.693
397.491
397.29
397.092
396.897
396.706
396.516
396.33
396.148
395.97
395.798
395.631
395.465
395.3
395.135
394.972
394.81
394.65
394.491
394.334
394.433
394.541
394.646
394.744
394.835
400
400
400
400
400
399.812
399.605
399.389
399.169
398.949
398.731
398.516
398.305
398.099
397.894
397.691
397.489
397.289
397.09
396.896
396.704
396.515
396.328
396.146
395.97
395.798
395.631
395.466
395.302
395.137
394.974
394.812
394.651
394.492
394.333
394.433
394.541
394.645
394.744
394.835
400
400
400
400
400
399.812
399.605
399.389
399.169
398.948
398.73
398.515
398.303
398.096
397.892
397.69
397.488
397.288
397.09
396.895
396.703
396.514
396.328
396.147
395.971
395.8
395.633
395.468
395.304
395.139
394.976
394.814
394.652
394.491
394.332
394.432
394.539
394.644
394.742
394.834
400
400
400
400
400
399.812
399.605
399.389
399.169
398.948
398.73
398.514
398.302
398.095
397.891
397.689
397.489
397.29
397.092
396.898
396.706
396.517
396.332
396.152
395.977
395.806
395.639
395.474
395.31
395.145
394.981
394.818
394.656
394.495
394.335
394.434
394.542
394.646
394.745
394.836
400
400
400
400
400
399.812
399.606
399.389
399.169
398.948
398.729
398.513
398.301
398.093
397.889
397.688
397.489
397.291
397.095
396.902
396.711
396.523
396.339
396.159
395.984
395.813
395.646
395.481
395.315
395.15
394.985
394.822
394.659
394.497
394.335
394.435
394.542
394.647
394.746
394.837
400
400
400
400
400
399.812
399.606
399.39
399.17
398.949
398.73
398.514
398.301
398.093
397.889
397.688
397.49
397.294
397.1
396.908
396.718
396.531
396.348
396.169
395.994
395.823
395.655
395.488
395.322
395.156
394.992
394.828
394.664
394.501
394.339
394.439
394.546
394.651
394.75
394.841
400
400
400
400
400
399.813
399.606
399.39
399.17
398.949
398.73
398.514
398.301
398.092
397.888
397.687
397.49
397.295
397.102
396.912
396.723
396.537
396.355
396.176
396.001
395.83
395.66
395.493
395.326
395.159
394.994
394.829
394.666
394.502
394.34
394.44
394.547
394.652
394.751
394.842
400
400
400
400
400
399.813
399.607
399.391
399.171
398.951
398.732
398.516
398.303
398.094
397.889
397.688
397.492
397.298
397.107
396.918
396.731
396.546
396.365
396.186
396.011
395.838
395.668
395.499
395.331
395.164
394.998
394.834
394.67
394.506
394.344
394.443
394.551
394.656
394.755
394.846
400
400
400
400
400
399.813
399.607
399.392
399.172
398.952
398.732
398.516
398.303
398.093
397.888
397.687
397.491
397.299
397.109
396.92
396.734
396.55
396.369
396.191
396.014
395.841
395.669
395.499
395.33
395.162
394.996
394.831
394.667
394.503
394.341
394.44
394.548
394.653
394.752
394.843
400
400
400
400
400
399.814
399.608
399.393
399.174
398.954
398.735
398.519
398.306
398.096
397.891
397.69
397.493
397.301
397.112
396.925
396.739
396.556
396.374
396.195
396.018
395.842
395.669
395.497
395.327
395.159
394.992
394.826
394.661
394.496
394.333
394.432
394.54
394.645
394.744
394.835
400
400
400
400
400
399.814
399.608
399.393
399.174
398.953
398.734
398.517
398.303
398.092
397.885
397.683
397.485
397.292
397.102
396.913
396.727
396.541
396.358
396.176
395.996
395.817
395.641
395.466
395.292
395.121
394.951
394.782
394.614
394.446
394.28
394.38
394.488
394.593
394.691
394.783
400
400
400
400
400
399.814
399.609
399.393
399.172
398.95
398.728
398.508
398.29
398.075
397.864
397.656
397.453
397.254
397.058
396.864
396.671
396.478
396.287
396.098
395.909
395.722
395.536
395.352
395.17
394.99
394.81
394.632
394.455
394.278
394.102
394.204
394.312
394.419
394.517
394.609
400
400
400
400
400
399.809
399.597
399.373
399.142
398.908
398.673
398.438
398.204
397.972
397.743
397.516
397.293
397.074
396.856
396.64
396.424
396.208
395.993
395.778
395.564
395.351
395.14
394.929
394.721
394.513
394.307
394.102
393.897
393.693
393.49
393.603
393.725
393.843
393.95
394.052
400
400
400
400
399.999
399.778
399.526
399.258
398.981
398.698
398.413
398.128
397.842
397.557
397.274
396.994
396.717
396.442
396.169
395.896
395.622
395.349
395.075
394.802
394.529
394.257
393.987
393.718
393.45
393.184
392.919
392.655
392.391
392.128
391.868
392.116
392.354
392.567
392.755
392.919
400
400
400
400
400
399.858
399.696
399.515
399.32
399.112
398.893
398.665
398.43
398.19
397.945
397.696
397.445
397.192
396.938
396.683
396.428
396.172
395.916
395.658
395.398
395.137
394.875
394.614
394.352
394.091
393.832
393.574
393.317
393.062
392.812
392.884
392.977
393.08
393.186
393.284
400
400
400
400
400
399.878
399.741
399.593
399.435
399.268
399.094
398.914
398.729
398.542
398.351
398.158
397.964
397.769
397.573
397.378
397.183
396.988
396.792
396.596
396.398
396.2
396.002
395.804
395.606
395.409
395.213
395.018
394.825
394.633
394.443
394.442
394.455
394.48
394.511
394.545
400
400
400
400
400
399.88
399.748
399.606
399.455
399.298
399.135
398.968
398.798
398.626
398.452
398.277
398.102
397.928
397.753
397.579
397.406
397.234
397.062
396.89
396.717
396.545
396.372
396.2
396.029
395.859
395.69
395.523
395.357
395.192
395.03
395.031
395.043
395.063
395.089
395.119
400
400
400
400
400
399.88
399.748
399.606
399.456
399.3
399.139
398.975
398.808
398.64
398.47
398.301
398.131
397.961
397.793
397.625
397.458
397.293
397.128
396.963
396.798
396.633
396.469
396.305
396.143
395.982
395.822
395.663
395.507
395.352
395.199
395.203
395.216
395.238
395.265
395.296
400
400
400
400
400
399.88
399.747
399.606
399.456
399.3
399.14
398.977
398.811
398.644
398.476
398.308
398.139
397.972
397.804
397.638
397.472
397.308
397.145
396.982
396.82
396.658
396.496
396.335
396.175
396.017
395.86
395.705
395.551
395.4
395.25
395.255
395.269
395.291
395.319
395.351
400
400
400
400
400
399.879
399.747
399.604
399.454
399.298
399.138
398.974
398.809
398.642
398.475
398.307
398.138
397.971
397.803
397.636
397.47
397.306
397.143
396.98
396.818
396.656
396.495
396.335
396.176
396.019
395.862
395.708
395.555
395.405
395.256
395.261
395.276
395.299
395.327
395.359
400
400
400
400
400
399.879
399.746
399.604
399.454
399.298
399.138
398.975
398.81
398.644
398.477
398.309
398.141
397.973
397.805
397.637
397.47
397.305
397.141
396.979
396.817
396.655
396.495
396.335
396.176
396.019
395.863
395.709
395.556
395.406
395.258
395.263
395.278
395.301
395.329
395.361
400
400
400
400
400
399.879
399.746
399.604
399.453
399.297
399.137
398.974
398.809
398.644
398.477
398.309
398.141
397.972
397.803
397.634
397.466
397.3
397.136
396.972
396.81
396.649
396.489
396.329
396.17
396.013
395.857
395.703
395.551
395.401
395.253
395.258
395.273
395.296
395.324
395.356
400
400
400
400
400
399.879
399.746
399.604
399.454
399.298
399.138
398.975
398.811
398.646
398.479
398.312
398.143
397.973
397.804
397.634
397.466
397.298
397.133
396.969
396.807
396.646
396.485
396.326
396.168
396.01
395.855
395.701
395.548
395.398
395.25
395.255
395.271
395.293
395.321
395.354
400
400
400
400
400
399.879
399.747
399.604
399.454
399.298
399.138
398.976
398.812
398.647
398.48
398.312
398.143
397.973
397.802
397.632
397.462
397.294
397.127
396.963
396.8
396.639
396.479
396.32
396.161
396.004
395.849
395.695
395.543
395.393
395.245
395.25
395.265
395.288
395.316
395.349
400
400
400
400
400
399.88
399.748
399.606
399.456
399.3
399.14
398.978
398.814
398.649
398.483
398.314
398.144
397.973
397.802
397.631
397.461
397.292
397.124
396.959
396.796
396.635
396.475
396.316
396.158
396.001
395.846
395.692
395.54
395.39
395.242
395.247
395.263
395.286
395.314
395.347
400
400
400
400
400
399.88
399.748
399.606
399.457
399.301
399.141
398.979
398.815
398.65
398.483
398.314
398.144
397.972
397.8
397.629
397.458
397.289
397.121
396.955
396.791
396.63
396.47
396.312
396.154
395.998
395.842
395.689
395.537
395.387
395.239
395.244
395.26
395.283
395.311
395.344
400
400
400
400
400
399.881
399.749
399.608
399.459
399.303
399.143
398.981
398.817
398.652
398.484
398.315
398.144
397.972
397.8
397.629
397.459
397.289
397.12
396.954
396.79
396.629
396.47
396.312
396.154
395.998
395.843
395.69
395.538
395.388
395.24
395.245
395.26
395.283
395.312
395.345
400
400
400
400
400
399.881
399.75
399.609
399.46
399.304
399.144
398.981
398.817
398.651
398.484
398.314
398.143
397.971
397.799
397.628
397.457
397.288
397.119
396.953
396.789
396.628
396.469
396.311
396.154
395.998
395.844
395.69
395.539
395.389
395.24
395.246
395.261
395.284
395.312
395.345
400
400
400
400
400
399.881
399.75
399.609
399.46
399.305
399.144
398.981
398.817
398.651
398.483
398.313
398.142
397.969
397.798
397.627
397.456
397.287
397.119
396.952
396.788
396.627
396.469
396.312
396.155
396
395.845
395.692
395.541
395.391
395.242
395.247
395.263
395.286
395.314
395.347
400
400
400
400
400
399.882
399.751
399.61
399.461
399.305
399.145
398.982
398.817
398.65
398.482
398.312
398.14
397.968
397.796
397.625
397.455
397.286
397.117
396.951
396.787
396.627
396.469
396.312
396.156
396.001
395.847
395.694
395.542
395.392
395.242
395.248
395.263
395.286
395.314
395.347
400
400
400
400
400
399.882
399.751
399.611
399.461
399.305
399.144
398.981
398.815
398.648
398.48
398.31
398.138
397.966
397.794
397.623
397.453
397.283
397.115
396.949
396.785
396.625
396.467
396.311
396.156
396.001
395.847
395.694
395.542
395.392
395.242
395.247
395.262
395.285
395.314
395.346
400
400
400
400
400
399.882
399.752
399.611
399.461
399.305
399.144
398.98
398.814
398.647
398.479
398.309
398.137
397.965
397.793
397.622
397.452
397.282
397.114
396.948
396.785
396.625
396.468
396.312
396.157
396.002
395.848
395.695
395.544
395.393
395.242
395.248
395.263
395.286
395.314
395.347
400
400
400
400
400
399.882
399.752
399.611
399.461
399.305
399.144
398.979
398.813
398.646
398.477
398.307
398.136
397.964
397.792
397.621
397.451
397.281
397.113
396.948
396.785
396.626
396.469
396.313
396.158
396.003
395.85
395.697
395.545
395.393
395.242
395.247
395.262
395.285
395.313
395.346
400
400
400
400
400
399.882
399.752
399.611
399.461
399.305
399.144
398.979
398.813
398.645
398.477
398.307
398.137
397.966
397.794
397.623
397.453
397.284
397.117
396.952
396.79
396.631
396.474
396.318
396.163
396.009
395.855
395.701
395.549
395.397
395.245
395.25
395.265
395.288
395.316
395.349
400
400
400
400
400
399.882
399.752
399.611
399.461
399.305
399.144
398.979
398.812
398.644
398.476
398.306
398.137
397.966
397.796
397.626
397.456
397.288
397.121
396.957
396.795
396.636
396.479
396.323
396.168
396.013
395.859
395.705
395.552
395.399
395.247
395.252
395.267
395.289
395.317
395.35
400
400
400
400
400
399.882
399.752
399.611
399.462
399.306
399.144
398.979
398.813
398.645
398.476
398.307
398.138
397.969
397.799
397.63
397.462
397.294
397.128
396.965
396.803
396.644
396.487
396.331
396.175
396.02
395.865
395.712
395.558
395.405
395.252
395.257
395.272
395.294
395.322
395.355
400
400
400
400
400
399.882
399.752
399.612
399.462
399.306
399.144
398.979
398.812
398.644
398.475
398.306
398.138
397.969
397.801
397.633
397.465
397.298
397.133
396.97
396.809
396.65
396.492
396.335
396.179
396.023
395.868
395.714
395.56
395.407
395.254
395.259
395.273
395.296
395.324
395.356
400
400
400
400
400
399.883
399.753
399.612
399.463
399.307
399.146
398.981
398.814
398.646
398.477
398.309
398.14
397.973
397.805
397.638
397.471
397.306
397.141
396.978
396.817
396.657
396.499
396.342
396.185
396.029
395.874
395.719
395.565
395.412
395.259
395.263
395.278
395.3
395.328
395.361
400
400
400
400
400
399.883
399.753
399.612
399.463
399.307
399.146
398.981
398.814
398.646
398.477
398.308
398.14
397.973
397.806
397.64
397.474
397.308
397.144
396.982
396.82
396.66
396.5
396.342
396.185
396.028
395.873
395.718
395.564
395.41
395.256
395.261
395.275
395.298
395.326
395.358
400
400
400
400
400
399.883
399.754
399.614
399.465
399.309
399.149
398.984
398.817
398.649
398.48
398.311
398.143
397.976
397.809
397.643
397.478
397.313
397.149
396.985
396.823
396.662
396.501
396.342
396.184
396.026
395.87
395.714
395.559
395.404
395.25
395.254
395.268
395.29
395.318
395.35
400
400
400
400
400
399.883
399.754
399.613
399.464
399.309
399.147
398.982
398.814
398.645
398.475
398.305
398.135
397.967
397.8
397.632
397.465
397.299
397.133
396.967
396.802
396.638
396.475
396.312
396.151
395.991
395.831
395.672
395.514
395.356
395.199
395.202
395.215
395.237
395.264
395.295
400
400
400
400
400
399.883
399.754
399.613
399.463
399.306
399.143
398.975
398.804
398.631
398.457
398.282
398.108
397.934
397.761
397.588
397.415
397.241
397.068
396.895
396.722
396.55
396.378
396.207
396.037
395.868
395.699
395.531
395.364
395.197
395.03
395.031
395.042
395.063
395.088
395.119
400
400
400
400
400
399.88
399.746
399.6
399.442
399.275
399.101
398.92
398.735
398.547
398.356
398.163
397.97
397.776
397.583
397.388
397.192
396.996
396.799
396.601
396.404
396.206
396.008
395.811
395.615
395.419
395.223
395.028
394.833
394.638
394.444
394.442
394.456
394.48
394.511
394.545
400
400
400
400
400
399.861
399.701
399.522
399.327
399.119
398.9
398.671
398.436
398.194
397.949
397.701
397.451
397.201
396.948
396.695
396.439
396.182
395.923
395.664
395.404
395.143
394.882
394.622
394.363
394.103
393.845
393.586
393.328
393.069
392.812
392.884
392.977
393.08
393.186
393.284
400
400
400
400
400
399.891
399.771
399.641
399.5
399.348
399.186
399.015
398.835
398.647
398.452
398.25
398.043
397.831
397.615
397.395
397.172
396.946
396.718
396.486
396.25
396.013
395.773
395.531
395.289
395.045
394.802
394.558
394.315
394.072
393.831
393.826
393.835
393.855
393.885
393.911
400
400
400
400
400
399.905
399.804
399.696
399.582
399.461
399.334
399.201
399.063
398.921
398.773
398.622
398.468
398.311
398.151
397.989
397.826
397.661
397.494
397.325
397.153
396.98
396.806
396.631
396.455
396.279
396.103
395.926
395.75
395.575
395.4
395.362
395.33
395.305
395.286
395.269
400
400
400
400
400
399.907
399.809
399.705
399.596
399.482
399.364
399.241
399.114
398.984
398.851
398.716
398.578
398.439
398.298
398.156
398.013
397.869
397.724
397.578
397.43
397.281
397.132
396.982
396.832
396.682
396.533
396.383
396.235
396.086
395.939
395.91
395.885
395.865
395.849
395.836
400
400
400
400
400
399.907
399.809
399.705
399.597
399.484
399.367
399.246
399.122
398.995
398.866
398.734
398.601
398.466
398.33
398.194
398.056
397.919
397.78
397.641
397.5
397.359
397.218
397.076
396.934
396.793
396.652
396.511
396.371
396.232
396.095
396.07
396.049
396.032
396.019
396.01
400
400
400
400
400
399.907
399.808
399.705
399.597
399.484
399.368
399.248
399.124
398.999
398.87
398.74
398.608
398.474
398.34
398.204
398.069
397.932
397.796
397.658
397.52
397.381
397.242
397.103
396.964
396.825
396.687
396.549
396.412
396.277
396.142
396.119
396.099
396.084
396.072
396.066
400
400
400
400
400
399.907
399.808
399.704
399.596
399.483
399.366
399.246
399.123
398.997
398.869
398.739
398.607
398.473
398.339
398.203
398.067
397.93
397.794
397.657
397.519
397.38
397.242
397.103
396.965
396.827
396.689
396.552
396.416
396.281
396.148
396.125
396.106
396.091
396.08
396.074
400
400
400
400
400
399.907
399.808
399.704
399.595
399.483
399.366
399.246
399.124
398.998
398.871
398.741
398.609
398.475
398.34
398.204
398.067
397.93
397.793
397.656
397.518
397.38
397.242
397.103
396.965
396.827
396.69
396.553
396.417
396.283
396.149
396.127
396.108
396.093
396.082
396.077
400
400
400
400
400
399.907
399.808
399.704
399.595
399.482
399.366
399.246
399.123
398.998
398.87
398.74
398.608
398.474
398.338
398.201
398.064
397.926
397.788
397.651
397.513
397.375
397.236
397.098
396.96
396.822
396.684
396.548
396.412
396.277
396.144
396.121
396.103
396.088