/*--------------------------------*- C++ -*----------------------------------*\
| =========                 |                                                 |
| \\      /  F ield         | OpenFOAM: The Open Source CFD Toolbox           |
|  \\    /   O peration     | Version:  5.0                                   |
|   \\  /    A nd           | Web:      www.OpenFOAM.org                      |
|    \\/     M anipulation  |                                                 |
\*---------------------------------------------------------------------------*/
FoamFile
{
    version     2.0;
    format      ascii;
    class       volVectorField;
    location    "500/porous";
    object      U;
}
// * * * * * * * * * * * * * * * * * * * * * * * * * * * * * * * * * * * * * //

dimensions      [0 1 -1 0 0 0 0];

internalField   nonuniform List<vector> 
36000
(
(0.00555056 7.02127e-05 0.000289042)
(0.00340903 4.42548e-05 6.71224e-05)
(0.00220329 3.69639e-05 1.37094e-05)
(0.00180686 3.07685e-05 1.60336e-06)
(0.00158038 2.55944e-05 1.93768e-07)
(0.00143087 2.16609e-05 -4.36104e-08)
(0.00131992 1.86587e-05 -9.92061e-08)
(0.00123221 1.63201e-05 -1.35693e-07)
(0.00116052 1.44475e-05 -1.60066e-07)
(0.00110042 1.29121e-05 -1.72948e-07)
(0.00104907 1.16278e-05 -1.77881e-07)
(0.00100455 1.05356e-05 -1.77419e-07)
(0.000965469 9.59366e-06 -1.73399e-07)
(0.000930829 8.77161e-06 -1.67057e-07)
(0.000899864 8.04684e-06 -1.59236e-07)
(0.000871988 7.40224e-06 -1.50509e-07)
(0.000846739 6.82465e-06 -1.41275e-07)
(0.000823745 6.30377e-06 -1.31816e-07)
(0.000802709 5.83145e-06 -1.22328e-07)
(0.000783384 5.40112e-06 -1.12949e-07)
(0.000765565 5.00746e-06 -1.03781e-07)
(0.000749081 4.64611e-06 -9.48884e-08)
(0.000733788 4.3134e-06 -8.63223e-08)
(0.000719561 4.00626e-06 -7.81111e-08)
(0.000706293 3.72211e-06 -7.02718e-08)
(0.000693893 3.4587e-06 -6.28107e-08)
(0.00068228 3.21412e-06 -5.57375e-08)
(0.000671383 2.98666e-06 -4.90357e-08)
(0.000661141 2.77503e-06 -4.27331e-08)
(0.000651495 2.57749e-06 -3.67427e-08)
(0.000642404 2.39421e-06 -3.12594e-08)
(0.000633803 2.22076e-06 -2.57535e-08)
(0.000625708 2.06536e-06 -2.15627e-08)
(0.00061794 1.90317e-06 -1.51686e-08)
(0.000610837 1.79568e-06 -1.56381e-08)
(0.000603417 1.58006e-06 7.53757e-10)
(0.000598098 1.6582e-06 -2.70217e-08)
(0.000588666 1.04847e-06 6.1454e-08)
(0.000590143 1.86577e-06 -1.49855e-07)
(0.000568368 1.43925e-07 5.94489e-07)
(0.00562429 8.38019e-05 0.000295874)
(0.00352515 5.57859e-05 6.94443e-05)
(0.00238476 4.95062e-05 1.59396e-05)
(0.00202138 4.17585e-05 3.37245e-06)
(0.00182312 3.58425e-05 1.57099e-06)
(0.00169624 3.13323e-05 1.11422e-06)
(0.0016036 2.77807e-05 9.06684e-07)
(0.00153095 2.49103e-05 7.56707e-07)
(0.00147176 2.25175e-05 6.42938e-07)
(0.00142217 2.04752e-05 5.57473e-07)
(0.00137972 1.86995e-05 4.92088e-07)
(0.00134278 1.71334e-05 4.41029e-07)
(0.00131018 1.57368e-05 4.00299e-07)
(0.00128111 1.44804e-05 3.67147e-07)
(0.00125493 1.33422e-05 3.39656e-07)
(0.00123117 1.23054e-05 3.16473e-07)
(0.00120947 1.13566e-05 2.96622e-07)
(0.00118953 1.04854e-05 2.79392e-07)
(0.00117111 9.68301e-06 2.64241e-07)
(0.00115403 8.94231e-06 2.50775e-07)
(0.00113812 8.25732e-06 2.38674e-07)
(0.00112326 7.62292e-06 2.27706e-07)
(0.00110934 7.03471e-06 2.17681e-07)
(0.00109625 6.48884e-06 2.08451e-07)
(0.00108393 5.98195e-06 1.99895e-07)
(0.00107229 5.51104e-06 1.91919e-07)
(0.00106128 5.07348e-06 1.84445e-07)
(0.00105086 4.6668e-06 1.77413e-07)
(0.00104096 4.28919e-06 1.70757e-07)
(0.00103154 3.93797e-06 1.6446e-07)
(0.00102258 3.61355e-06 1.58418e-07)
(0.00101403 3.30885e-06 1.52772e-07)
(0.00100589 3.03716e-06 1.47042e-07)
(0.000998042 2.75773e-06 1.42398e-07)
(0.000990699 2.57256e-06 1.35731e-07)
(0.000983226 2.20124e-06 1.35355e-07)
(0.000977202 2.36794e-06 1.18598e-07)
(0.000968383 1.15149e-06 1.53738e-07)
(0.00096769 3.29302e-06 1.33687e-08)
(0.000948242 -2.29535e-06 6.54397e-07)
(0.00561665 4.31986e-05 0.000294818)
(0.00351435 3.87549e-05 6.83114e-05)
(0.00239037 3.89918e-05 1.53282e-05)
(0.00203483 3.50479e-05 2.96223e-06)
(0.00184471 3.11662e-05 1.26848e-06)
(0.00172533 2.78118e-05 8.8646e-07)
(0.00163969 2.49083e-05 7.21894e-07)
(0.00157364 2.24204e-05 5.97653e-07)
(0.00152072 2.02732e-05 4.99539e-07)
(0.00147707 1.84035e-05 4.23727e-07)
(0.00144027 1.67601e-05 3.64412e-07)
(0.00140869 1.53028e-05 3.17308e-07)
(0.00138119 1.40001e-05 2.79303e-07)
(0.00135694 1.28275e-05 2.48195e-07)
(0.00133534 1.17655e-05 2.22415e-07)
(0.00131593 1.07986e-05 2.00819e-07)
(0.00129834 9.91439e-06 1.8256e-07)
(0.00128229 9.10285e-06 1.66995e-07)
(0.00126757 8.35569e-06 1.53637e-07)
(0.00125399 7.66613e-06 1.42092e-07)
(0.00124139 7.02846e-06 1.32057e-07)
(0.00122967 6.43788e-06 1.23293e-07)
(0.00121871 5.89028e-06 1.15587e-07)
(0.00120844 5.38214e-06 1.08792e-07)
(0.00119878 4.91037e-06 1.02764e-07)
(0.00118967 4.47228e-06 9.74e-08)
(0.00118106 4.06554e-06 9.25948e-08)
(0.0011729 3.68798e-06 8.82838e-08)
(0.00116516 3.33807e-06 8.43826e-08)
(0.00115778 3.01351e-06 8.086e-08)
(0.00115076 2.71482e-06 7.76138e-08)
(0.00114405 2.43579e-06 7.47528e-08)
(0.00113766 2.18849e-06 7.18514e-08)
(0.00113148 1.93598e-06 6.98595e-08)
(0.00112568 1.7715e-06 6.63289e-08)
(0.0011198 1.43132e-06 6.72857e-08)
(0.00111492 1.61414e-06 5.80747e-08)
(0.00110822 3.52456e-07 7.57359e-08)
(0.00110677 2.88858e-06 1.50321e-08)
(0.00109301 -4.63703e-06 3.56799e-07)
(0.00560903 3.7218e-05 0.000295464)
(0.00349577 4.16684e-05 6.89141e-05)
(0.00237452 4.09011e-05 1.5737e-05)
(0.00202133 3.65959e-05 3.25869e-06)
(0.00183431 3.22541e-05 1.48091e-06)
(0.00171797 2.84864e-05 1.04272e-06)
(0.00163519 2.52718e-05 8.38265e-07)
(0.00157184 2.25653e-05 6.87113e-07)
(0.00152146 2.02753e-05 5.71009e-07)
(0.00148021 1.83189e-05 4.83093e-07)
(0.0014457 1.66287e-05 4.15584e-07)
(0.0014163 1.51519e-05 3.62874e-07)
(0.0013909 1.38477e-05 3.20968e-07)
(0.00136869 1.26849e-05 2.87081e-07)
(0.00134905 1.16393e-05 2.59238e-07)
(0.00133154 1.0692e-05 2.36041e-07)
(0.00131579 9.82858e-06 2.16456e-07)
(0.00130154 9.03729e-06 1.9973e-07)
(0.00128855 8.30897e-06 1.85288e-07)
(0.00127665 7.63623e-06 1.727e-07)
(0.0012657 7.01305e-06 1.61624e-07)
(0.00125557 6.43452e-06 1.51798e-07)
(0.00124617 5.89654e-06 1.43017e-07)
(0.00123741 5.39567e-06 1.35111e-07)
(0.00122921 4.929e-06 1.27949e-07)
(0.00122153 4.49404e-06 1.21423e-07)
(0.00121431 4.0887e-06 1.15446e-07)
(0.00120749 3.71104e-06 1.09937e-07)
(0.00120106 3.35981e-06 1.0484e-07)
(0.00119496 3.03298e-06 1.00115e-07)
(0.00118918 2.73142e-06 9.56786e-08)
(0.00118368 2.44915e-06 9.15892e-08)
(0.00117845 2.19885e-06 8.7585e-08)
(0.00117343 1.94395e-06 8.42085e-08)
(0.00116871 1.77796e-06 8.00659e-08)
(0.00116399 1.44414e-06 7.83025e-08)
(0.0011599 1.61678e-06 7.20166e-08)
(0.00115485 4.56034e-07 7.39779e-08)
(0.00115268 2.78356e-06 6.00346e-08)
(0.0011432 -3.85826e-06 1.81642e-07)
(0.00560508 2.48873e-05 0.00029527)
(0.00348634 3.19097e-05 6.8561e-05)
(0.00236678 3.29948e-05 1.53586e-05)
(0.00201478 3.08458e-05 2.95255e-06)
(0.00182897 2.80114e-05 1.23553e-06)
(0.00171363 2.52317e-05 8.45311e-07)
(0.00163167 2.26644e-05 6.7598e-07)
(0.00156903 2.03784e-05 5.5067e-07)
(0.00151928 1.83655e-05 4.53598e-07)
(0.00147863 1.65966e-05 3.79674e-07)
(0.00144469 1.50382e-05 3.22506e-07)
(0.00141587 1.36585e-05 2.77491e-07)
(0.00139103 1.243e-05 2.41375e-07)
(0.00136938 1.13296e-05 2.11915e-07)
(0.00135031 1.03382e-05 1.87531e-07)
(0.00133337 9.44019e-06 1.67095e-07)
(0.0013182 8.62274e-06 1.49782e-07)
(0.00130453 7.87543e-06 1.34986e-07)
(0.00129212 7.18974e-06 1.22242e-07)
(0.00128081 6.5586e-06 1.11185e-07)
(0.00127044 5.9762e-06 1.01537e-07)
(0.0012609 5.43768e-06 9.30743e-08)
(0.00125207 4.93897e-06 8.56105e-08)
(0.00124389 4.4766e-06 7.90054e-08)
(0.00123627 4.04765e-06 7.31344e-08)
(0.00122916 3.64958e-06 6.78944e-08)
(0.0012225 3.28029e-06 6.32072e-08)
(0.00121625 2.93787e-06 5.89963e-08)
(0.00121037 2.62104e-06 5.52023e-08)
(0.00120482 2.32791e-06 5.17829e-08)
(0.00119958 2.05925e-06 4.86722e-08)
(0.00119462 1.80976e-06 4.58842e-08)
(0.00118992 1.59109e-06 4.32553e-08)
(0.00118544 1.37099e-06 4.10691e-08)
(0.0011812 1.23327e-06 3.86328e-08)
(0.00117708 9.54796e-07 3.71509e-08)
(0.00117328 1.12188e-06 3.54235e-08)
(0.00116929 1.86448e-07 2.85748e-08)
(0.00116626 2.15533e-06 5.33045e-08)
(0.00116032 -2.90798e-06 2.95588e-08)
(0.005603 2.06431e-05 0.000295425)
(0.00348001 3.00625e-05 6.88203e-05)
(0.0023591 3.20574e-05 1.56022e-05)
(0.00200672 3.05767e-05 3.17461e-06)
(0.00182116 2.80205e-05 1.42759e-06)
(0.0017063 2.52901e-05 1.00838e-06)
(0.00162491 2.26849e-05 8.13357e-07)
(0.00156283 2.03337e-05 6.66819e-07)
(0.00151364 1.82595e-05 5.52771e-07)
(0.0014735 1.64447e-05 4.65394e-07)
(0.00144003 1.48584e-05 3.97613e-07)
(0.00141164 1.34671e-05 3.44216e-07)
(0.00138721 1.22403e-05 3.01451e-07)
(0.00136593 1.11518e-05 2.66665e-07)
(0.0013472 1.01793e-05 2.37965e-07)
(0.00133059 9.30498e-06 2.13988e-07)
(0.00131573 8.51402e-06 1.93729e-07)
(0.00130234 7.79452e-06 1.76427e-07)
(0.00129022 7.13684e-06 1.61521e-07)
(0.00127918 6.53315e-06 1.48561e-07)
(0.00126908 5.97705e-06 1.37208e-07)
(0.00125979 5.46332e-06 1.27189e-07)
(0.00125122 4.98763e-06 1.18291e-07)
(0.00124328 4.5464e-06 1.10334e-07)
(0.00123591 4.13665e-06 1.0318e-07)
(0.00122904 3.75586e-06 9.67199e-08)
(0.00122262 3.40199e-06 9.08488e-08)
(0.00121661 3.07321e-06 8.54945e-08)
(0.00121096 2.76836e-06 8.05852e-08)
(0.00120565 2.48575e-06 7.60776e-08)
(0.00120064 2.22623e-06 7.19079e-08)
(0.00119591 1.98522e-06 6.80633e-08)
(0.00119144 1.77354e-06 6.44606e-08)
(0.0011872 1.5634e-06 6.11381e-08)
(0.00118316 1.42878e-06 5.80401e-08)
(0.00117934 1.18284e-06 5.46598e-08)
(0.00117559 1.3134e-06 5.41471e-08)
(0.00117225 5.98538e-07 3.93133e-08)
(0.0011685 2.10896e-06 8.15723e-08)
(0.00116462 -1.34817e-06 -2.06936e-08)
(0.00560161 1.56281e-05 0.000295385)
(0.00347577 2.40841e-05 6.87263e-05)
(0.00235408 2.62753e-05 1.54538e-05)
(0.00200186 2.55913e-05 3.02374e-06)
(0.00181672 2.38356e-05 1.2881e-06)
(0.00170234 2.17705e-05 8.8348e-07)
(0.00162138 1.96993e-05 7.03196e-07)
(0.00155968 1.77658e-05 5.70219e-07)
(0.00151079 1.60177e-05 4.68034e-07)
(0.0014709 1.446e-05 3.90702e-07)
(0.00143764 1.30792e-05 3.31267e-07)
(0.00140942 1.18554e-05 2.84734e-07)
(0.00138513 1.07677e-05 2.47595e-07)
(0.00136397 9.79689e-06 2.17411e-07)
(0.00134537 8.92597e-06 1.92493e-07)
(0.00132885 8.14064e-06 1.71639e-07)
(0.00131409 7.42893e-06 1.53976e-07)
(0.0013008 6.78091e-06 1.38857e-07)
(0.00128876 6.18841e-06 1.25806e-07)
(0.0012778 5.64471e-06 1.14444e-07)
(0.00126778 5.14426e-06 1.04491e-07)
(0.00125858 4.68245e-06 9.57113e-08)
(0.00125009 4.25545e-06 8.79282e-08)
(0.00124223 3.86007e-06 8.0995e-08)
(0.00123494 3.49363e-06 7.47877e-08)
(0.00122815 3.15384e-06 6.92147e-08)
(0.00122181 2.83886e-06 6.41877e-08)
(0.00121588 2.54706e-06 5.96388e-08)
(0.00121031 2.2774e-06 5.55152e-08)
(0.00120508 2.02843e-06 5.17594e-08)
(0.00120016 1.80099e-06 4.83384e-08)
(0.00119551 1.59129e-06 4.52008e-08)
(0.00119112 1.40895e-06 4.23542e-08)
(0.00118696 1.23128e-06 3.96375e-08)
(0.001183 1.12073e-06 3.75207e-08)
(0.00117931 9.28817e-07 3.42019e-08)
(0.00117554 1.04409e-06 3.62491e-08)
(0.00117262 5.45477e-07 1.78327e-08)
(0.00116836 1.70369e-06 7.21708e-08)
(0.00116613 -5.15396e-07 -7.21964e-08)
(0.00560094 1.2886e-05 0.000295428)
(0.00347324 2.10616e-05 6.88154e-05)
(0.00235028 2.37315e-05 1.55517e-05)
(0.00199752 2.36639e-05 3.12786e-06)
(0.00181221 2.23869e-05 1.39143e-06)
(0.00169789 2.06365e-05 9.80938e-07)
(0.00161708 1.87667e-05 7.92589e-07)
(0.0015556 1.69605e-05 6.50987e-07)
(0.00150694 1.52965e-05 5.40515e-07)
(0.00146728 1.37994e-05 4.55635e-07)
(0.00143424 1.24677e-05 3.89542e-07)
(0.00140622 1.1288e-05 3.37252e-07)
(0.00138212 1.02427e-05 2.95185e-07)
(0.00136113 9.31397e-06 2.60816e-07)
(0.00134268 8.4853e-06 2.32348e-07)
(0.0013263 7.74221e-06 2.08477e-07)
(0.00131167 7.0724e-06 1.88245e-07)
(0.00129849 6.46557e-06 1.70934e-07)
(0.00128656 5.91317e-06 1.55988e-07)
(0.0012757 5.40818e-06 1.42976e-07)
(0.00126577 4.94479e-06 1.31577e-07)
(0.00125665 4.51821e-06 1.21518e-07)
(0.00124824 4.1245e-06 1.12585e-07)
(0.00124046 3.76039e-06 1.04612e-07)
(0.00123323 3.42315e-06 9.74519e-08)
(0.00122651 3.11054e-06 9.09975e-08)
(0.00122023 2.82071e-06 8.51442e-08)
(0.00121436 2.55211e-06 7.98233e-08)
(0.00120885 2.30377e-06 7.49566e-08)
(0.00120368 2.07439e-06 7.04931e-08)
(0.00119881 1.86475e-06 6.63969e-08)
(0.00119422 1.67181e-06 6.25908e-08)
(0.00118987 1.50396e-06 5.91372e-08)
(0.00118578 1.34331e-06 5.57077e-08)
(0.00118185 1.2411e-06 5.3173e-08)
(0.00117827 1.08342e-06 4.8714e-08)
(0.00117446 1.16932e-06 5.12402e-08)
(0.00117183 8.27688e-07 2.90695e-08)
(0.00116724 1.67673e-06 8.83168e-08)
(0.00116587 2.95574e-07 -8.05361e-08)
(0.00560043 1.0174e-05 0.000295418)
(0.00347131 1.70114e-05 6.87909e-05)
(0.0023474 1.94198e-05 1.54997e-05)
(0.00199439 1.95643e-05 3.06469e-06)
(0.00180912 1.86545e-05 1.32493e-06)
(0.00169498 1.72905e-05 9.14603e-07)
(0.00161442 1.57846e-05 7.28835e-07)
(0.00155318 1.43022e-05 5.91167e-07)
(0.00150474 1.29196e-05 4.85218e-07)
(0.00146528 1.16651e-05 4.04938e-07)
(0.00143241 1.05423e-05 3.43242e-07)
(0.00140453 9.54316e-06 2.94996e-07)
(0.00138054 8.65476e-06 2.56568e-07)
(0.00135966 7.86327e-06 2.25415e-07)
(0.00134128 7.15552e-06 1.99764e-07)
(0.00132498 6.51976e-06 1.7835e-07)
(0.0013104 5.9459e-06 1.60253e-07)
(0.00129727 5.42544e-06 1.44798e-07)
(0.00128539 4.9513e-06 1.31465e-07)
(0.00127457 4.51761e-06 1.19872e-07)
(0.00126468 4.11953e-06 1.09713e-07)
(0.00125559 3.75307e-06 1.0075e-07)
(0.00124721 3.41492e-06 9.27969e-08)
(0.00123945 3.10234e-06 8.56983e-08)
(0.00123226 2.81303e-06 7.93369e-08)
(0.00122556 2.54512e-06 7.36048e-08)
(0.00121931 2.29708e-06 6.84243e-08)
(0.00121346 2.06759e-06 6.37209e-08)
(0.00120798 1.85588e-06 5.94381e-08)
(0.00120282 1.66095e-06 5.55238e-08)
(0.00119797 1.48353e-06 5.1953e-08)
(0.00119341 1.32136e-06 4.86378e-08)
(0.00118909 1.18156e-06 4.56947e-08)
(0.00118502 1.05063e-06 4.26744e-08)
(0.00118111 9.69528e-07 4.07603e-08)
(0.00117758 8.53778e-07 3.64142e-08)
(0.00117376 9.2847e-07 4.03464e-08)
(0.00117133 7.15974e-07 1.68844e-08)
(0.00116655 1.358e-06 8.11716e-08)
(0.00116593 5.3826e-07 -1.01544e-07)
(0.00560017 8.22274e-06 0.00029543)
(0.00347016 1.41092e-05 6.88215e-05)
(0.00234539 1.64737e-05 1.55359e-05)
(0.00199195 1.69033e-05 3.10737e-06)
(0.00180648 1.6352e-05 1.37214e-06)
(0.00169229 1.53172e-05 9.63379e-07)
(0.00161176 1.40886e-05 7.77198e-07)
(0.00155061 1.28303e-05 6.37813e-07)
(0.00150229 1.16276e-05 5.29372e-07)
(0.00146296 1.05188e-05 4.46222e-07)
(0.0014302 9.51658e-06 3.8155e-07)
(0.00140244 8.61946e-06 3.30388e-07)
(0.00137856 7.81958e-06 2.89206e-07)
(0.00135778 7.10651e-06 2.55519e-07)
(0.0013395 6.46947e-06 2.27579e-07)
(0.00132328 5.89833e-06 2.04107e-07)
(0.00130877 5.38409e-06 1.84184e-07)
(0.00129572 4.91902e-06 1.67108e-07)
(0.0012839 4.49653e-06 1.52343e-07)
(0.00127314 4.11114e-06 1.39484e-07)
(0.0012633 3.75829e-06 1.28202e-07)
(0.00125426 3.43417e-06 1.1824e-07)
(0.00124593 3.13565e-06 1.09397e-07)
(0.00123822 2.86011e-06 1.015e-07)
(0.00123106 2.60539e-06 9.44112e-08)
(0.0012244 2.3697e-06 8.80278e-08)
(0.00121819 2.15161e-06 8.22446e-08)
(0.00121237 1.9499e-06 7.69896e-08)
(0.00120692 1.76386e-06 7.21951e-08)
(0.0012018 1.59262e-06 6.77974e-08)
(0.00119698 1.4368e-06 6.37758e-08)
(0.00119244 1.29472e-06 6.00194e-08)
(0.00118814 1.1722e-06 5.66887e-08)
(0.00118412 1.0594e-06 5.32239e-08)
(0.00118023 9.88108e-07 5.10301e-08)
(0.00117675 8.97342e-07 4.6026e-08)
(0.00117293 9.52003e-07 5.00791e-08)
(0.00117063 8.18716e-07 2.47895e-08)
(0.00116575 1.28418e-06 9.08264e-08)
(0.00116548 7.96892e-07 -1.01691e-07)
(0.00559996 6.37934e-06 0.000295427)
(0.00346924 1.10402e-05 6.88153e-05)
(0.00234381 1.2993e-05 1.55186e-05)
(0.00199008 1.33998e-05 3.08331e-06)
(0.00180451 1.30075e-05 1.34402e-06)
(0.00169035 1.2205e-05 9.32568e-07)
(0.00160993 1.12315e-05 7.45154e-07)
(0.00154892 1.02247e-05 6.05692e-07)
(0.00150074 9.25751e-06 4.98e-07)
(0.00146154 8.36396e-06 4.16133e-07)
(0.00142891 7.5557e-06 3.53053e-07)
(0.00140126 6.83242e-06 3.03625e-07)
(0.00137747 6.18802e-06 2.64205e-07)
(0.00135677 5.61407e-06 2.3224e-07)
(0.00133855 5.10178e-06 2.05922e-07)
(0.00132239 4.64283e-06 1.83962e-07)
(0.00130793 4.22987e-06 1.65421e-07)
(0.00129492 3.85654e-06 1.49596e-07)
(0.00128313 3.51749e-06 1.35965e-07)
(0.0012724 3.20828e-06 1.24113e-07)
(0.00126259 2.9252e-06 1.1374e-07)
(0.00125357 2.6652e-06 1.04593e-07)
(0.00124526 2.42577e-06 9.64736e-08)
(0.00123757 2.20481e-06 8.92318e-08)
(0.00123043 2.00062e-06 8.27369e-08)
(0.00122379 1.81179e-06 7.6885e-08)
(0.00121759 1.63719e-06 7.15899e-08)
(0.00121178 1.47588e-06 6.67785e-08)
(0.00120635 1.32735e-06 6.23971e-08)
(0.00120124 1.19095e-06 5.83834e-08)
(0.00119643 1.06727e-06 5.47218e-08)
(0.00119191 9.55162e-07 5.12938e-08)
(0.00118763 8.59304e-07 4.82971e-08)
(0.00118362 7.72815e-07 4.51008e-08)
(0.00117974 7.19772e-07 4.32904e-08)
(0.0011763 6.57546e-07 3.84073e-08)
(0.00117248 7.04622e-07 4.32142e-08)
(0.00117029 6.33085e-07 1.74905e-08)
(0.00116535 9.82599e-07 8.58839e-08)
(0.00116544 7.13292e-07 -1.12508e-07)
(0.00559985 4.82813e-06 0.00029543)
(0.00346868 8.44928e-06 6.88258e-05)
(0.00234275 1.00857e-05 1.55316e-05)
(0.00198873 1.05288e-05 3.09972e-06)
(0.00180301 1.03337e-05 1.36369e-06)
(0.00168879 9.78562e-06 9.54399e-07)
(0.00160837 9.0738e-06 7.68244e-07)
(0.0015474 8.31158e-06 6.29282e-07)
(0.00149928 7.56279e-06 5.21459e-07)
(0.00146014 6.86001e-06 4.38998e-07)
(0.00142758 6.21693e-06 3.75009e-07)
(0.0014 5.63656e-06 3.24484e-07)
(0.00137627 5.11626e-06 2.83874e-07)
(0.00135562 4.65083e-06 2.50688e-07)
(0.00133746 4.23418e-06 2.23177e-07)
(0.00132135 3.86027e-06 2.00078e-07)
(0.00130694 3.52351e-06 1.80465e-07)
(0.00129396 3.219e-06 1.63653e-07)
(0.00128222 2.94252e-06 1.49113e-07)
(0.00127152 2.6905e-06 1.36444e-07)
(0.00126174 2.45995e-06 1.25326e-07)
(0.00125276 2.24837e-06 1.15508e-07)
(0.00124448 2.05368e-06 1.06788e-07)
(0.00123681 1.87414e-06 9.9e-08)
(0.0012297 1.70833e-06 9.20127e-08)
(0.00122308 1.55508e-06 8.57153e-08)
(0.0012169 1.41341e-06 8.00142e-08)
(0.00121112 1.28257e-06 7.48311e-08)
(0.0012057 1.1621e-06 7.01097e-08)
(0.00120061 1.05148e-06 6.57803e-08)
(0.00119582 9.51162e-07 6.18296e-08)
(0.00119132 8.60359e-07 5.81236e-08)
(0.00118705 7.82584e-07 5.48809e-08)
(0.00118307 7.132e-07 5.14171e-08)
(0.0011792 6.69597e-07 4.94241e-08)
(0.0011758 6.22961e-07 4.41736e-08)
(0.00117198 6.54968e-07 4.89618e-08)
(0.00116988 6.13993e-07 2.23465e-08)
(0.0011649 8.56313e-07 9.1322e-08)
(0.00116515 7.02012e-07 -1.11654e-07)
(0.00559976 3.35122e-06 0.000295428)
(0.00346827 5.87521e-06 6.88239e-05)
(0.00234197 7.04128e-06 1.5526e-05)
(0.00198774 7.35768e-06 3.09125e-06)
(0.00180193 7.22126e-06 1.35302e-06)
(0.0016877 6.82798e-06 9.41772e-07)
(0.00160731 6.31504e-06 7.54215e-07)
(0.0015464 5.76527e-06 6.14421e-07)
(0.00149835 5.22579e-06 5.06242e-07)
(0.0014593 4.72077e-06 4.23816e-07)
(0.00142681 4.26035e-06 3.60145e-07)
(0.00139929 3.84661e-06 3.10138e-07)
(0.00137562 3.47743e-06 2.70176e-07)
(0.00135502 3.14873e-06 2.3771e-07)
(0.00133691 2.8558e-06 2.10943e-07)
(0.00132083 2.59401e-06 1.88585e-07)
(0.00130645 2.35911e-06 1.69693e-07)
(0.0012935 2.14738e-06 1.5356e-07)
(0.00128178 1.95567e-06 1.39652e-07)
(0.00127111 1.7813e-06 1.27567e-07)
(0.00126134 1.62208e-06 1.16986e-07)
(0.00125237 1.47617e-06 1.07653e-07)
(0.0012441 1.34207e-06 9.93769e-08)
(0.00123645 1.21853e-06 9.19844e-08)
(0.00122935 1.10454e-06 8.53633e-08)
(0.00122274 9.99269e-07 7.93937e-08)
(0.00121657 9.02061e-07 7.39919e-08)
(0.0012108 8.12385e-07 6.90794e-08)
(0.00120539 7.29939e-07 6.46107e-08)
(0.00120031 6.54413e-07 6.05097e-08)
(0.00119553 5.86147e-07 5.67729e-08)
(0.00119103 5.24689e-07 5.3265e-08)
(0.00118677 4.72523e-07 5.02133e-08)
(0.00118279 4.26762e-07 4.69047e-08)
(0.00117894 3.9919e-07 4.51221e-08)
(0.00117556 3.71612e-07 3.99645e-08)
(0.00117175 3.97365e-07 4.51234e-08)
(0.0011697 3.8129e-07 1.83886e-08)
(0.0011647 5.50556e-07 8.84374e-08)
(0.00116513 4.75708e-07 -1.17208e-07)
(0.00559971 1.99019e-06 0.000295428)
(0.00346803 3.50313e-06 6.88265e-05)
(0.00234151 4.23885e-06 1.553e-05)
(0.00198714 4.4639e-06 3.09678e-06)
(0.00180125 4.41941e-06 1.3601e-06)
(0.00168697 4.2144e-06 9.49987e-07)
(0.00160658 3.93052e-06 7.6328e-07)
(0.00154568 3.61758e-06 6.24064e-07)
(0.00149767 3.30468e-06 5.16179e-07)
(0.00145864 3.00747e-06 4.33798e-07)
(0.00142618 2.73311e-06 3.69983e-07)
(0.00139869 2.48381e-06 3.19691e-07)
(0.00137506 2.25912e-06 2.79342e-07)
(0.00135448 2.05726e-06 2.46428e-07)
(0.00133639 1.8759e-06 2.19188e-07)
(0.00132033 1.71265e-06 1.9635e-07)
(0.00130598 1.56525e-06 1.76981e-07)
(0.00129305 1.4317e-06 1.60392e-07)
(0.00128135 1.31025e-06 1.46063e-07)
(0.00127069 1.19938e-06 1.33581e-07)
(0.00126094 1.09787e-06 1.22632e-07)
(0.00125199 1.00464e-06 1.12965e-07)
(0.00124373 9.18815e-07 1.04382e-07)
(0.00123609 8.39651e-07 9.67141e-08)
(0.001229 7.66536e-07 8.98402e-08)
(0.0012224 6.98955e-07 8.364e-08)
(0.00121625 6.36504e-07 7.80318e-08)
(0.00121048 5.78851e-07 7.29285e-08)
(0.00120508 5.25789e-07 6.82843e-08)
(0.00120001 4.77132e-07 6.40237e-08)
(0.00119524 4.33054e-07 6.0142e-08)
(0.00119076 3.93305e-07 5.64952e-08)
(0.00118651 3.59337e-07 5.33191e-08)
(0.00118254 3.29547e-07 4.98821e-08)
(0.0011787 3.10675e-07 4.8005e-08)
(0.00117534 2.92682e-07 4.26798e-08)
(0.00117153 3.05226e-07 4.78028e-08)
(0.00116952 2.96061e-07 2.07004e-08)
(0.00116451 3.88211e-07 9.0897e-08)
(0.001165 3.47701e-07 -1.16694e-07)
(0.00559969 6.53515e-07 0.000295425)
(0.00346791 1.14437e-06 6.8825e-05)
(0.00234128 1.38021e-06 1.55283e-05)
(0.00198683 1.44108e-06 3.09449e-06)
(0.00180091 1.41188e-06 1.35718e-06)
(0.00168662 1.32866e-06 9.4634e-07)
(0.00160624 1.22003e-06 7.5904e-07)
(0.00154536 1.10349e-06 6.19401e-07)
(0.00149736 9.89236e-07 5.11258e-07)
(0.00145836 8.82708e-07 4.28757e-07)
(0.00142593 7.86213e-07 3.64932e-07)
(0.00139846 7.00262e-07 3.14722e-07)
(0.00137485 6.24386e-07 2.74509e-07)
(0.0013543 5.57651e-07 2.41781e-07)
(0.00133622 4.98945e-07 2.14751e-07)
(0.00132018 4.47167e-07 1.92127e-07)
(0.00130583 4.0131e-07 1.72984e-07)
(0.00129292 3.60486e-07 1.56612e-07)
(0.00128122 3.23941e-07 1.4249e-07)
(0.00127057 2.91038e-07 1.30208e-07)
(0.00126083 2.61266e-07 1.19444e-07)
(0.00125188 2.34203e-07 1.0995e-07)
(0.00124363 2.09488e-07 1.0152e-07)
(0.001236 1.86855e-07 9.40002e-08)
(0.00122891 1.66074e-07 8.7256e-08)
(0.00122232 1.46965e-07 8.11821e-08)
(0.00121616 1.29397e-07 7.56803e-08)
(0.00121041 1.13258e-07 7.06828e-08)
(0.00120501 9.84833e-08 6.61335e-08)
(0.00119994 8.50266e-08 6.1961e-08)
(0.00119518 7.29576e-08 5.81586e-08)
(0.00119069 6.22119e-08 5.45836e-08)
(0.00118645 5.32775e-08 5.14808e-08)
(0.00118249 4.56747e-08 4.81071e-08)
(0.00117865 4.16317e-08 4.63016e-08)
(0.00117529 3.80152e-08 4.1023e-08)
(0.00117149 4.45579e-08 4.62585e-08)
(0.00116949 4.48404e-08 1.91572e-08)
(0.00116449 7.98594e-08 8.96276e-08)
(0.00116503 7.25701e-08 -1.18798e-07)
(0.00559969 -6.53517e-07 0.000295425)
(0.00346791 -1.14437e-06 6.8825e-05)
(0.00234128 -1.38021e-06 1.55283e-05)
(0.00198683 -1.44108e-06 3.09449e-06)
(0.00180091 -1.41188e-06 1.35718e-06)
(0.00168662 -1.32867e-06 9.46339e-07)
(0.00160624 -1.22004e-06 7.5904e-07)
(0.00154536 -1.10349e-06 6.19402e-07)
(0.00149736 -9.89248e-07 5.11261e-07)
(0.00145836 -8.82715e-07 4.28758e-07)
(0.00142593 -7.86215e-07 3.64932e-07)
(0.00139846 -7.00271e-07 3.1472e-07)
(0.00137485 -6.24393e-07 2.74511e-07)
(0.0013543 -5.57654e-07 2.41783e-07)
(0.00133622 -4.98951e-07 2.1475e-07)
(0.00132018 -4.47176e-07 1.9213e-07)
(0.00130583 -4.01317e-07 1.72985e-07)
(0.00129292 -3.60493e-07 1.56616e-07)
(0.00128122 -3.23947e-07 1.42494e-07)
(0.00127057 -2.91045e-07 1.3021e-07)
(0.00126083 -2.61272e-07 1.19443e-07)
(0.00125188 -2.34199e-07 1.09948e-07)
(0.00124363 -2.09492e-07 1.01521e-07)
(0.001236 -1.86855e-07 9.40011e-08)
(0.00122891 -1.66076e-07 8.72556e-08)
(0.00122232 -1.46971e-07 8.11809e-08)
(0.00121616 -1.29399e-07 7.56816e-08)
(0.00121041 -1.13254e-07 7.06847e-08)
(0.00120501 -9.84837e-08 6.61323e-08)
(0.00119994 -8.50257e-08 6.19608e-08)
(0.00119518 -7.29571e-08 5.8159e-08)
(0.00119069 -6.22095e-08 5.45856e-08)
(0.00118645 -5.32758e-08 5.14826e-08)
(0.00118249 -4.56725e-08 4.81077e-08)
(0.00117865 -4.16331e-08 4.63041e-08)
(0.00117529 -3.80173e-08 4.10223e-08)
(0.00117149 -4.45571e-08 4.62636e-08)
(0.00116949 -4.4844e-08 1.91557e-08)
(0.00116449 -7.98569e-08 8.96287e-08)
(0.00116503 -7.25719e-08 -1.18797e-07)
(0.00559971 -1.9902e-06 0.000295428)
(0.00346803 -3.50313e-06 6.88265e-05)
(0.00234151 -4.23885e-06 1.553e-05)
(0.00198714 -4.46391e-06 3.09678e-06)
(0.00180125 -4.41942e-06 1.36009e-06)
(0.00168697 -4.2144e-06 9.49986e-07)
(0.00160658 -3.93053e-06 7.63283e-07)
(0.00154568 -3.61758e-06 6.24061e-07)
(0.00149767 -3.30469e-06 5.1618e-07)
(0.00145864 -3.00747e-06 4.33798e-07)
(0.00142618 -2.73311e-06 3.69985e-07)
(0.00139869 -2.48382e-06 3.19692e-07)
(0.00137506 -2.25913e-06 2.79342e-07)
(0.00135448 -2.05726e-06 2.4643e-07)
(0.00133639 -1.8759e-06 2.19189e-07)
(0.00132033 -1.71265e-06 1.96348e-07)
(0.00130598 -1.56525e-06 1.76984e-07)
(0.00129305 -1.4317e-06 1.60396e-07)
(0.00128135 -1.31025e-06 1.46063e-07)
(0.00127069 -1.19939e-06 1.33579e-07)
(0.00126094 -1.09788e-06 1.2263e-07)
(0.00125199 -1.00465e-06 1.12965e-07)
(0.00124373 -9.18821e-07 1.04379e-07)
(0.00123609 -8.39654e-07 9.67158e-08)
(0.001229 -7.66538e-07 8.98408e-08)
(0.0012224 -6.98954e-07 8.36391e-08)
(0.00121625 -6.36504e-07 7.80296e-08)
(0.00121048 -5.78847e-07 7.29289e-08)
(0.00120508 -5.25788e-07 6.82828e-08)
(0.00120001 -4.7713e-07 6.40224e-08)
(0.00119524 -4.33053e-07 6.014e-08)
(0.00119076 -3.93309e-07 5.64917e-08)
(0.00118651 -3.59333e-07 5.33174e-08)
(0.00118254 -3.29546e-07 4.98811e-08)
(0.0011787 -3.10681e-07 4.80041e-08)
(0.00117534 -2.92686e-07 4.26802e-08)
(0.00117153 -3.05231e-07 4.78037e-08)
(0.00116952 -2.96062e-07 2.07024e-08)
(0.00116451 -3.88213e-07 9.08985e-08)
(0.001165 -3.47704e-07 -1.16695e-07)
(0.00559976 -3.35122e-06 0.000295428)
(0.00346827 -5.87521e-06 6.88239e-05)
(0.00234197 -7.04128e-06 1.5526e-05)
(0.00198774 -7.35769e-06 3.09124e-06)
(0.00180193 -7.22127e-06 1.35302e-06)
(0.0016877 -6.82798e-06 9.41773e-07)
(0.00160731 -6.31505e-06 7.54215e-07)
(0.0015464 -5.76528e-06 6.14421e-07)
(0.00149835 -5.22579e-06 5.06243e-07)
(0.0014593 -4.72078e-06 4.23815e-07)
(0.00142681 -4.26036e-06 3.60143e-07)
(0.00139929 -3.84662e-06 3.10137e-07)
(0.00137562 -3.47744e-06 2.70176e-07)
(0.00135502 -3.14873e-06 2.3771e-07)
(0.00133691 -2.85581e-06 2.10943e-07)
(0.00132083 -2.59401e-06 1.88584e-07)
(0.00130645 -2.35911e-06 1.69692e-07)
(0.0012935 -2.14738e-06 1.53558e-07)
(0.00128178 -1.95567e-06 1.39653e-07)
(0.00127111 -1.78131e-06 1.27567e-07)
(0.00126134 -1.62209e-06 1.16984e-07)
(0.00125237 -1.47618e-06 1.07656e-07)
(0.0012441 -1.34207e-06 9.93752e-08)
(0.00123645 -1.21854e-06 9.19887e-08)
(0.00122935 -1.10454e-06 8.53632e-08)
(0.00122274 -9.99267e-07 7.93972e-08)
(0.00121657 -9.0206e-07 7.39911e-08)
(0.0012108 -8.12384e-07 6.90849e-08)
(0.00120539 -7.29939e-07 6.46131e-08)
(0.00120031 -6.54416e-07 6.05087e-08)
(0.00119553 -5.8615e-07 5.67726e-08)
(0.00119103 -5.24688e-07 5.32676e-08)
(0.00118677 -4.72524e-07 5.02112e-08)
(0.00118279 -4.26765e-07 4.69078e-08)
(0.00117894 -3.99187e-07 4.51238e-08)
(0.00117556 -3.7161e-07 3.9966e-08)
(0.00117175 -3.97363e-07 4.51243e-08)
(0.0011697 -3.81287e-07 1.83911e-08)
(0.0011647 -5.50555e-07 8.84374e-08)
(0.00116513 -4.75707e-07 -1.17206e-07)
(0.00559985 -4.82814e-06 0.00029543)
(0.00346868 -8.44928e-06 6.88258e-05)
(0.00234275 -1.00857e-05 1.55316e-05)
(0.00198873 -1.05288e-05 3.09971e-06)
(0.00180301 -1.03337e-05 1.3637e-06)
(0.00168879 -9.78563e-06 9.54399e-07)
(0.00160837 -9.07381e-06 7.68243e-07)
(0.0015474 -8.31159e-06 6.29282e-07)
(0.00149928 -7.56279e-06 5.21462e-07)
(0.00146014 -6.86002e-06 4.38999e-07)
(0.00142758 -6.21694e-06 3.7501e-07)
(0.0014 -5.63656e-06 3.24485e-07)
(0.00137627 -5.11626e-06 2.83872e-07)
(0.00135562 -4.65084e-06 2.50686e-07)
(0.00133746 -4.23419e-06 2.23176e-07)
(0.00132135 -3.86028e-06 2.00077e-07)
(0.00130694 -3.52352e-06 1.80466e-07)
(0.00129396 -3.219e-06 1.63651e-07)
(0.00128222 -2.94252e-06 1.49113e-07)
(0.00127152 -2.69051e-06 1.36446e-07)
(0.00126174 -2.45995e-06 1.25327e-07)
(0.00125276 -2.24837e-06 1.15508e-07)
(0.00124448 -2.05368e-06 1.06787e-07)
(0.00123681 -1.87414e-06 9.89976e-08)
(0.0012297 -1.70833e-06 9.20118e-08)
(0.00122308 -1.55507e-06 8.57146e-08)
(0.0012169 -1.41341e-06 8.00137e-08)
(0.00121112 -1.28258e-06 7.48335e-08)
(0.0012057 -1.1621e-06 7.01097e-08)
(0.00120061 -1.05148e-06 6.57797e-08)
(0.00119582 -9.51162e-07 6.18294e-08)
(0.00119132 -8.60357e-07 5.81271e-08)
(0.00118705 -7.82585e-07 5.48777e-08)
(0.00118307 -7.13202e-07 5.1413e-08)
(0.0011792 -6.69596e-07 4.94234e-08)
(0.0011758 -6.22953e-07 4.41745e-08)
(0.00117198 -6.54965e-07 4.89641e-08)
(0.00116988 -6.13989e-07 2.23486e-08)
(0.0011649 -8.56314e-07 9.13222e-08)
(0.00116515 -7.02004e-07 -1.11655e-07)
(0.00559996 -6.37934e-06 0.000295427)
(0.00346924 -1.10402e-05 6.88153e-05)
(0.00234381 -1.2993e-05 1.55186e-05)
(0.00199008 -1.33998e-05 3.08331e-06)
(0.00180451 -1.30075e-05 1.34402e-06)
(0.00169035 -1.2205e-05 9.32567e-07)
(0.00160993 -1.12315e-05 7.45152e-07)
(0.00154892 -1.02247e-05 6.05692e-07)
(0.00150074 -9.25751e-06 4.98001e-07)
(0.00146154 -8.36396e-06 4.16137e-07)
(0.00142891 -7.55571e-06 3.53054e-07)
(0.00140126 -6.83243e-06 3.03626e-07)
(0.00137747 -6.18802e-06 2.64207e-07)
(0.00135677 -5.61408e-06 2.32239e-07)
(0.00133855 -5.10178e-06 2.05924e-07)
(0.00132239 -4.64284e-06 1.83964e-07)
(0.00130793 -4.22987e-06 1.6542e-07)
(0.00129492 -3.85653e-06 1.49595e-07)
(0.00128313 -3.51749e-06 1.35962e-07)
(0.0012724 -3.20828e-06 1.24114e-07)
(0.00126259 -2.9252e-06 1.13741e-07)
(0.00125357 -2.6652e-06 1.0459e-07)
(0.00124526 -2.42577e-06 9.64744e-08)
(0.00123757 -2.20481e-06 8.92334e-08)
(0.00123043 -2.00062e-06 8.27363e-08)
(0.00122379 -1.8118e-06 7.68832e-08)
(0.00121759 -1.63719e-06 7.15903e-08)