/*--------------------------------*- C++ -*----------------------------------*\
| =========                 |                                                 |
| \\      /  F ield         | OpenFOAM: The Open Source CFD Toolbox           |
|  \\    /   O peration     | Version:  5.0                                   |
|   \\  /    A nd           | Web:      www.OpenFOAM.org                      |
|    \\/     M anipulation  |                                                 |
\*---------------------------------------------------------------------------*/
FoamFile
{
    version     2.0;
    format      ascii;
    class       volScalarField;
    location    "1100/porous";
    object      T;
}
// * * * * * * * * * * * * * * * * * * * * * * * * * * * * * * * * * * * * * //

dimensions      [0 0 0 1 0 0 0];

internalField   nonuniform List<scalar> 
36000
(
400
400
400
400
399.999
399.583
399.206
398.854
398.52
398.199
397.885
397.579
397.277
396.98
396.686
396.397
396.11
395.826
395.545
395.267
394.991
394.716
394.441
394.164
393.887
393.61
393.335
393.062
392.793
392.527
392.266
392.01
391.763
391.527
391.311
391.833
392.186
392.455
392.674
392.86
400
400
400
400
399.999
399.632
399.3
398.993
398.704
398.428
398.161
397.902
397.65
397.403
397.16
396.922
396.688
396.458
396.231
396.007
395.785
395.566
395.346
395.125
394.905
394.685
394.467
394.251
394.038
393.829
393.623
393.423
393.228
393.043
392.869
393.212
393.454
393.64
393.789
393.92
400
400
400
400
399.999
399.639
399.315
399.018
398.739
398.475
398.221
397.977
397.741
397.511
397.287
397.068
396.854
396.645
396.44
396.239
396.041
395.845
395.65
395.454
395.259
395.065
394.872
394.683
394.497
394.314
394.136
393.963
393.796
393.637
393.488
393.805
394.032
394.206
394.347
394.468
400
400
400
400
399.999
399.638
399.315
399.018
398.741
398.478
398.227
397.986
397.753
397.527
397.308
397.095
396.886
396.683
396.485
396.291
396.101
395.914
395.726
395.538
395.35
395.165
394.981
394.8
394.623
394.45
394.281
394.117
393.96
393.811
393.672
393.983
394.208
394.381
394.523
394.643
400
400
400
400
399.999
399.638
399.315
399.018
398.741
398.479
398.228
397.988
397.755
397.531
397.313
397.1
396.894
396.693
396.497
396.306
396.118
395.933
395.748
395.562
395.377
395.194
395.013
394.835
394.66
394.49
394.324
394.164
394.01
393.865
393.728
394.038
394.262
394.436
394.577
394.697
400
400
400
400
399.999
399.637
399.314
399.017
398.739
398.477
398.226
397.985
397.753
397.528
397.31
397.099
396.892
396.692
396.497
396.307
396.121
395.936
395.751
395.565
395.381
395.199
395.019
394.841
394.667
394.498
394.333
394.174
394.021
393.876
393.741
394.05
394.274
394.448
394.59
394.71
400
400
400
400
399.999
399.637
399.313
399.017
398.739
398.477
398.227
397.986
397.754
397.53
397.312
397.101
396.895
396.695
396.501
396.312
396.126
395.942
395.757
395.571
395.387
395.205
395.025
394.848
394.675
394.505
394.341
394.182
394.029
393.885
393.75
394.058
394.282
394.456
394.598
394.718
400
400
400
400
399.999
399.637
399.314
399.017
398.74
398.478
398.227
397.987
397.755
397.531
397.314
397.102
396.897
396.698
396.504
396.315
396.13
395.945
395.76
395.575
395.391
395.208
395.029
394.852
394.679
394.509
394.344
394.185
394.033
393.889
393.753
394.062
394.286
394.459
394.601
394.721
400
400
400
400
399.999
399.638
399.314
399.018
398.742
398.48
398.23
397.99
397.759
397.536
397.319
397.108
396.903
396.705
396.511
396.323
396.137
395.952
395.767
395.582
395.398
395.216
395.037
394.86
394.687
394.517
394.353
394.194
394.041
393.896
393.761
394.069
394.293
394.466
394.608
394.727
400
400
400
400
399.999
399.638
399.316
399.02
398.744
398.482
398.233
397.994
397.763
397.54
397.324
397.114
396.91
396.712
396.518
396.329
396.142
395.957
395.772
395.588
395.404
395.223
395.043
394.867
394.694
394.524
394.359
394.2
394.047
393.902
393.766
394.075
394.298
394.471
394.612
394.732
400
400
400
400
399.999
399.639
399.318
399.022
398.747
398.486
398.237
397.998
397.769
397.546
397.331
397.122
396.919
396.721
396.527
396.336
396.148
395.962
395.778
395.595
395.412
395.231
395.052
394.876
394.703
394.533
394.368
394.209
394.055
393.909
393.772
394.081
394.304
394.477
394.618
394.738
400
400
400
400
399.999
399.64
399.319
399.024
398.75
398.489
398.241
398.003
397.773
397.552
397.337
397.129
396.927
396.728
396.533
396.34
396.151
395.965
395.781
395.599
395.418
395.237
395.059
394.883
394.71
394.54
394.375
394.215
394.061
393.915
393.777
394.085
394.309
394.482
394.623
394.742
400
400
400
400
399.999
399.641
399.321
399.028
398.753
398.493
398.245
398.007
397.778
397.557
397.343
397.136
396.934
396.735
396.538
396.344
396.154
395.968
395.785
395.604
395.423
395.244
395.066
394.891
394.718
394.548
394.383
394.223
394.068
393.92
393.78
394.089
394.313
394.486
394.627
394.747
400
400
400
400
399.999
399.642
399.323
399.03
398.756
398.496
398.248
398.01
397.781
397.56
397.346
397.139
396.937
396.738
396.54
396.346
396.155
395.968
395.786
395.606
395.427
395.248
395.071
394.896
394.723
394.554
394.388
394.228
394.073
393.924
393.782
394.091
394.315
394.488
394.629
394.749
400
400
400
400
399.999
399.643
399.324
399.032
398.758
398.498
398.25
398.012
397.782
397.561
397.347
397.14
396.938
396.739
396.541
396.346
396.155
395.968
395.786
395.607
395.429
395.252
395.075
394.9
394.728
394.558
394.393
394.231
394.076
393.926
393.783
394.093
394.317
394.49
394.631
394.751
400
400
400
400
399.999
399.645
399.328
399.035
398.762
398.502
398.253
398.014
397.784
397.562
397.348
397.14
396.938
396.738
396.541
396.346
396.155
395.968
395.786
395.607
395.43
395.254
395.078
394.903
394.73
394.561
394.395
394.233
394.076
393.924
393.779
394.09
394.314
394.488
394.629
394.749
400
400
400
400
399.999
399.646
399.329
399.037
398.763
398.503
398.254
398.015
397.784
397.561
397.346
397.138
396.935
396.736
396.539
396.344
396.154
395.967
395.785
395.607
395.43
395.253
395.077
394.903
394.73
394.56
394.394
394.231
394.073
393.921
393.775
394.086
394.311
394.485
394.626
394.746
400
400
400
400
399.999
399.647
399.331
399.04
398.766
398.505
398.256
398.016
397.784
397.561
397.344
397.135
396.932
396.733
396.537
396.343
396.153
395.967
395.786
395.607
395.429
395.252
395.076
394.901
394.728
394.558
394.391
394.228
394.069
393.916
393.769
394.08
394.306
394.48
394.621
394.742
400
400
400
400
399.999
399.649
399.333
399.042
398.768
398.507
398.257
398.016
397.784
397.56
397.342
397.132
396.928
396.729
396.534
396.342
396.153
395.968
395.785
395.605
395.426
395.248
395.072
394.896
394.723
394.552
394.385
394.221
394.062
393.907
393.759
394.071
394.297
394.472
394.614
394.734
400
400
400
400
399.999
399.65
399.335
399.043
398.769
398.508
398.258
398.017
397.784
397.559
397.341
397.129
396.925
396.726
396.532
396.342
396.154
395.969
395.786
395.604
395.424
395.245
395.067
394.891
394.718
394.546
394.378
394.214
394.054
393.899
393.751
394.064
394.29
394.465
394.608
394.728
400
400
400
400
399.999
399.651
399.336
399.044
398.77
398.509
398.258
398.016
397.783
397.557
397.339
397.127
396.921
396.723
396.53
396.34
396.153
395.968
395.784
395.601
395.419
395.239
395.06
394.884
394.71
394.538
394.369
394.205
394.044
393.889
393.739
394.054
394.281
394.456
394.599
394.72
400
400
400
400
399.999
399.651
399.337
399.045
398.771
398.509
398.258
398.017
397.783
397.557
397.338
397.125
396.92
396.721
396.528
396.34
396.153
395.967
395.782
395.597
395.415
395.234
395.055
394.878
394.704
394.531
394.362
394.197
394.037
393.881
393.731
394.046
394.274
394.449
394.593
394.714
400
400
400
400
399.999
399.651
399.337
399.046
398.771
398.509
398.258
398.016
397.782
397.556
397.336
397.123
396.917
396.718
396.526
396.337
396.15
395.963
395.777
395.592
395.409
395.227
395.048
394.871
394.696
394.523
394.354
394.188
394.027
393.871
393.722
394.037
394.265
394.441
394.585
394.706
400
400
400
400
399.999
399.652
399.338
399.046
398.772
398.51
398.259
398.017
397.783
397.557
397.337
397.124
396.917
396.719
396.526
396.337
396.149
395.962
395.775
395.59
395.406
395.224
395.045
394.867
394.692
394.519
394.35
394.184
394.023
393.866
393.716
394.032
394.26
394.437
394.581
394.702
400
400
400
400
399.999
399.652
399.338
399.047
398.772
398.511
398.259
398.017
397.783
397.556
397.336
397.122
396.916
396.717
396.524
396.334
396.145
395.957
395.77
395.584
395.4
395.219
395.039
394.861
394.685
394.512
394.342
394.176
394.014
393.858
393.708
394.024
394.252
394.429
394.573
394.694
400
400
400
400
399.999
399.653
399.339
399.048
398.774
398.512
398.261
398.019
397.785
397.557
397.337
397.124
396.917
396.718
396.524
396.333
396.143
395.954
395.766
395.58
395.396
395.213
395.033
394.854
394.678
394.505
394.334
394.167
394.004
393.846
393.695
394.012
394.24
394.417
394.561
394.682
400
400
400
400
399.999
399.653
399.339
399.047
398.773
398.511
398.259
398.016
397.781
397.553
397.331
397.116
396.908
396.707
396.511
396.317
396.125
395.933
395.744
395.555
395.369
395.184
395.001
394.82
394.641
394.465
394.292
394.122
393.956
393.795
393.64
393.958
394.187
394.364
394.507
394.628
400
400
400
400
399.999
399.653
399.339
399.046
398.769
398.505
398.251
398.005
397.766
397.534
397.307
397.087
396.874
396.666
396.463
396.262
396.062
395.864
395.666
395.471
395.276
395.083
394.892
394.703
394.515
394.33
394.148
393.969
393.793
393.622
393.459
393.782
394.013
394.19
394.332
394.455
400
400
400
400
399.999
399.646
399.323
399.02
398.733
398.456
398.188
397.927
397.672
397.423
397.178
396.939
396.705
396.476
396.251
396.027
395.804
395.582
395.361
395.141
394.922
394.704
394.487
394.272
394.058
393.847
393.638
393.431
393.228
393.031
392.84
393.191
393.436
393.625
393.775
393.908
400
400
400
400
399.999
399.598
399.229
398.882
398.549
398.226
397.911
397.602
397.297
396.997
396.701
396.41
396.123
395.842
395.563
395.286
395.008
394.731
394.455
394.179
393.904
393.63
393.358
393.086
392.817
392.549
392.284
392.022
391.764
391.512
391.274
391.805
392.164
392.436
392.657
392.844
400
400
400
400
399.999
399.778
399.527
399.259
398.98
398.697
398.411
398.126
397.84
397.556
397.272
396.99
396.71
396.432
396.155
395.88
395.606
395.334
395.061
394.788
394.514
394.24
393.966
393.694
393.425
393.158
392.895
392.637
392.384
392.141
391.912
392.159
392.394
392.605
392.791
392.954
400
400
400
400
400
399.81
399.598
399.372
399.14
398.905
398.669
398.434
398.2
397.968
397.738
397.51
397.285
397.062
396.841
396.622
396.406
396.191
395.976
395.762
395.547
395.332
395.119
394.907
394.696
394.489
394.284
394.083
393.887
393.697
393.515
393.629
393.75
393.868
393.974
394.075
400
400
400
400
400
399.814
399.609
399.392
399.169
398.946
398.723
398.502
398.284
398.069
397.857
397.648
397.442
397.24
397.041
396.845
396.652
396.46
396.27
396.08
395.89
395.701
395.514
395.328
395.145
394.964
394.786
394.612
394.443
394.28
394.124
394.226
394.335
394.441
394.539
394.63
400
400
400
400
400
399.814
399.608
399.392
399.171
398.949
398.728
398.51
398.295
398.084
397.876
397.672
397.472
397.276
397.083
396.894
396.708
396.524
396.341
396.159
395.978
395.797
395.618
395.441
395.266
395.095
394.926
394.762
394.603
394.449
394.302
394.403
394.511
394.616
394.713
394.804
400
400
400
400
400
399.814
399.608
399.392
399.171
398.949
398.729
398.511
398.297
398.087
397.88
397.678
397.479
397.284
397.094
396.907
396.723
396.542
396.362
396.182
396.002
395.824
395.648
395.474
395.302
395.133
394.968
394.807
394.651
394.5
394.357
394.458
394.565
394.67
394.768
394.859
400
400
400
400
400
399.813
399.607
399.39
399.169
398.947
398.726
398.508
398.294
398.083
397.877
397.675
397.476
397.282
397.092
396.906
396.723
396.543
396.363
396.184
396.005
395.828
395.652
395.479
395.308
395.14
394.975
394.815
394.66
394.511
394.368
394.469
394.577
394.682
394.78
394.871
400
400
400
400
400
399.813
399.607
399.39
399.169
398.947
398.726
398.509
398.295
398.084
397.878
397.676
397.478
397.284
397.095
396.91
396.728
396.547
396.368
396.189
396.01
395.833
395.658
395.485
395.314
395.146
394.982
394.822
394.667
394.518
394.376
394.477
394.585
394.689
394.788
394.879
400
400
400
400
400
399.813
399.607
399.39
399.169
398.947
398.726
398.508
398.294
398.084
397.878
397.676
397.479
397.285
397.096
396.911
396.729
396.549
396.37
396.191
396.012
395.836
395.66
395.487
395.317
395.149
394.985
394.825
394.67
394.521
394.379
394.48
394.588
394.692
394.791
394.882
400
400
400
400
400
399.813
399.607
399.391
399.17
398.948
398.728
398.511
398.297
398.087
397.882
397.681
397.483
397.291
397.102
396.917
396.735
396.555
396.376
396.197
396.019
395.842
395.667
395.495
395.324
395.156
394.992
394.832
394.677
394.528
394.386
394.487
394.594
394.699
394.797
394.888
400
400
400
400
400
399.813
399.608
399.391
399.171
398.949
398.729
398.512
398.299
398.09
397.885
397.684
397.488
397.296
397.107
396.922
396.74
396.559
396.38
396.201
396.024
395.847
395.673
395.5
395.33
395.162
394.998
394.838
394.683
394.533
394.391
394.491
394.599
394.703
394.801
394.892
400
400
400
400
400
399.814
399.609
399.393
399.173
398.952
398.732
398.516
398.304
398.095
397.891
397.691
397.495
397.303
397.115
396.929
396.746
396.565
396.386
396.208
396.03
395.854
395.68
395.508
395.337
395.17
395.006
394.846
394.69
394.541
394.397
394.498
394.605
394.709
394.807
394.898
400
400
400
400
400
399.814
399.609
399.394
399.174
398.954
398.735
398.519
398.307
398.099
397.895
397.696
397.501
397.309
397.12
396.933
396.749
396.568
396.389
396.211
396.034
395.859
395.685
395.513
395.343
395.176
395.012
394.852
394.696
394.546
394.402
394.502
394.609
394.714
394.811
394.902
400
400
400
400
400
399.815
399.611
399.396
399.177
398.956
398.738
398.522
398.31
398.103
397.9
397.701
397.506
397.314
397.125
396.937
396.753
396.571
396.392
396.215
396.039
395.865
395.691
395.52
395.35
395.183
395.019
394.859
394.703
394.552
394.406
394.507
394.614
394.718
394.816
394.907
400
400
400
400
400
399.815
399.612
399.397
399.178
398.958
398.74
398.524
398.313
398.105
397.902
397.704
397.509
397.317
397.127
396.939
396.754
396.572
396.393
396.217
396.042
395.868
395.695
395.524
395.355
395.188
395.024
394.863
394.707
394.555
394.409
394.509
394.616
394.721
394.818
394.909
400
400
400
400
400
399.816
399.612
399.398
399.18
398.96
398.742
398.526
398.314
398.106
397.903
397.705
397.51
397.318
397.128
396.94
396.754
396.572
396.393
396.217
396.043
395.87
395.698
395.527
395.358
395.191
395.027
394.867
394.71
394.558
394.411
394.511
394.618
394.722
394.82
394.911
400
400
400
400
400
399.817
399.614
399.401
399.183
398.963
398.744
398.528
398.316
398.108
397.904
397.705
397.51
397.318
397.128
396.94
396.754
396.572
396.393
396.218
396.044
395.871
395.7
395.529
395.36
395.193
395.029
394.868
394.711
394.558
394.409
394.509
394.616
394.721
394.819
394.91
400
400
400
400
400
399.817
399.615
399.402
399.184
398.964
398.745
398.529
398.317
398.108
397.904
397.704
397.508
397.316
397.126
396.938
396.753
396.571
396.393
396.217
396.043
395.871
395.699
395.529
395.36
395.193
395.028
394.867
394.709
394.555
394.406
394.506
394.613
394.718
394.816
394.907
400
400
400
400
400
399.818
399.617
399.404
399.186
398.966
398.747
398.53
398.317
398.108
397.903
397.703
397.507
397.314
397.124
396.937
396.753
396.571
396.393
396.217
396.043
395.87
395.698
395.527
395.358
395.191
395.026
394.864
394.706
394.551
394.401
394.501
394.609
394.713
394.811
394.903
400
400
400
400
400
399.819
399.618
399.405
399.187
398.967
398.748
398.531
398.318
398.108
397.902
397.701
397.504
397.312
397.122
396.936
396.752
396.571
396.392
396.216
396.041
395.867
395.695
395.524
395.354
395.187
395.021
394.859
394.7
394.544
394.393
394.494
394.601
394.706
394.804
394.896
400
400
400
400
400
399.82
399.619
399.406
399.188
398.968
398.749
398.532
398.318
398.108
397.902
397.7
397.503
397.31
397.121
396.935
396.752
396.571
396.393
396.216
396.04
395.865
395.692
395.521
395.351
395.183
395.017
394.854
394.694
394.538
394.387
394.487
394.595
394.7
394.799
394.89
400
400
400
400
400
399.82
399.62
399.407
399.189
398.969
398.75
398.532
398.318
398.107
397.901
397.698
397.5
397.307
397.119
396.934
396.751
396.57
396.391
396.213
396.037
395.861
395.688
395.515
395.345
395.176
395.01
394.846
394.686
394.53
394.377
394.478
394.586
394.691
394.79
394.882
400
400
400
400
400
399.82
399.62
399.408
399.19
398.97
398.751
398.533
398.319
398.108
397.901
397.698
397.5
397.307
397.118
396.934
396.751
396.57
396.391
396.212
396.035
395.859
395.684
395.511
395.34
395.171
395.005
394.841
394.68
394.523
394.371
394.472
394.58
394.686
394.784
394.876
400
400
400
400
400
399.82
399.62
399.408
399.19
398.97
398.751
398.533
398.318
398.107
397.9
397.697
397.498
397.305
397.117
396.932
396.749
396.568
396.387
396.208
396.03
395.854
395.679
395.506
395.334
395.165
394.997
394.833
394.672
394.515
394.363
394.464
394.572
394.678
394.777
394.869
400
400
400
400
400
399.821
399.621
399.409
399.192
398.972
398.752
398.535
398.32
398.109
397.902
397.698
397.5
397.307
397.118
396.933
396.75
396.568
396.387
396.207
396.029
395.852
395.677
395.504
395.332
395.162
394.995
394.83
394.669
394.512
394.359
394.46
394.569
394.674
394.774
394.866
400
400
400
400
400
399.821
399.621
399.41
399.192
398.972
398.753
398.535
398.32
398.109
397.901
397.698
397.499
397.305
397.116
396.931
396.747
396.564
396.383
396.203
396.024
395.847
395.672
395.498
395.326
395.156
394.988
394.824
394.662
394.504
394.351
394.452
394.561
394.667
394.766
394.858
400
400
400
400
400
399.821
399.622
399.411
399.194
398.974
398.755
398.538
398.323
398.111
397.904
397.7
397.501
397.307
397.118
396.931
396.747
396.563
396.381
396.201
396.021
395.844
395.667
395.493
395.32
395.15
394.981
394.815
394.653
394.494
394.34
394.441
394.549
394.655
394.754
394.846
400
400
400
400
400
399.821
399.622
399.411
399.193
398.973
398.753
398.535
398.319
398.107
397.898
397.694
397.493
397.298
397.106
396.917
396.73
396.544
396.36
396.177
395.996
395.816
395.637
395.46
395.284
395.111
394.94
394.771
394.606
394.444
394.287
394.388
394.496
394.602
394.7
394.792
400
400
400
400
400
399.822
399.622
399.41
399.191
398.969
398.747
398.526
398.307
398.09
397.877
397.667
397.461
397.26
397.062
396.866
396.672
396.479
396.287
396.097
395.907
395.719
395.532
395.347
395.163
394.981
394.8
394.623
394.448
394.276
394.11
394.212
394.321
394.428
394.527
394.619
400
400
400
400
400
399.817
399.611
399.39
399.16
398.927
398.691
398.455
398.22
397.987
397.756
397.527
397.301
397.079
396.859
396.641
396.424
396.208
395.992
395.777
395.563
395.349
395.137
394.925
394.715
394.507
394.3
394.095
393.893
393.694
393.5
393.615
393.737
393.855
393.963
394.065
400
400
400
400
399.999
399.786
399.542
399.277
399.001
398.719
398.433
398.146
397.859
397.573
397.287
397.004
396.724
396.446
396.171
395.897
395.623
395.349
395.075
394.802
394.53
394.258
393.986
393.716
393.447
393.18
392.914
392.651
392.391
392.136
391.889
392.138
392.375
392.588
392.775
392.939
400
400
400
400
400
399.861
399.701
399.523
399.327
399.119
398.899
398.67
398.434
398.193
397.947
397.698
397.447
397.194
396.939
396.683
396.427
396.17
395.912
395.652
395.391
395.129
394.866
394.604
394.342
394.082
393.824
393.569
393.318
393.073
392.838
392.912
393.006
393.11
393.216
393.314
400
400
400
400
400
399.881
399.747
399.599
399.441
399.273
399.099
398.918
398.732
398.544
398.352
398.159
397.964
397.768
397.572
397.376
397.18
396.983
396.786
396.588
396.39
396.191
395.992
395.793
395.596
395.399
395.204
395.011
394.821
394.635
394.454
394.455
394.47
394.496
394.527
394.562
400
400
400
400
400
399.883
399.754
399.612
399.462
399.303
399.14
398.971
398.8
398.627
398.452
398.276
398.1
397.924
397.749
397.575
397.401
397.228
397.054
396.881
396.707
396.534
396.361
396.188
396.017
395.847
395.68
395.514
395.351
395.193
395.039
395.041
395.054
395.075
395.102
395.133
400
400
400
400
400
399.883
399.753
399.612
399.463
399.306
399.144
398.978
398.809
398.639
398.468
398.297
398.126
397.956
397.786
397.618
397.451
397.285
397.119
396.953
396.787
396.622
396.457
396.293
396.131
395.97
395.811
395.655
395.502
395.352
395.207
395.212
395.227
395.25
395.278
395.31
400
400
400
400
400
399.883
399.753
399.613
399.463
399.306
399.145
398.979
398.811
398.642
398.472
398.302
398.133
397.964
397.796
397.63
397.465
397.301
397.138
396.974
396.81
396.647
396.485
396.324
396.165
396.007
395.851
395.698
395.548
395.402
395.26
395.266
395.282
395.305
395.333
395.366
400
400
400
400
400
399.883
399.753
399.612
399.461
399.304
399.142
398.976
398.808
398.639
398.469
398.299
398.13
397.961
397.794
397.628
397.464
397.301
397.138
396.975
396.812
396.65
396.488
396.328
396.169
396.012
395.857
395.704
395.555
395.41
395.27
395.276
395.292
395.316
395.345
395.378
400
400
400
400
400
399.883
399.753
399.612
399.461
399.304
399.142
398.977
398.809
398.64
398.47
398.3
398.131
397.962
397.796
397.631
397.467
397.304
397.141
396.978
396.816
396.654
396.493
396.333
396.174
396.017
395.862
395.711
395.562
395.417
395.277
395.283
395.299
395.323
395.352
395.386
400
400
400
400
400
399.883
399.753
399.611
399.461
399.304
399.142
398.976
398.808
398.639
398.469
398.299
398.13
397.962
397.795
397.631
397.467
397.304
397.141
396.979
396.816
396.654
396.493
396.333
396.175
396.018
395.864
395.712
395.563
395.418
395.278
395.285
395.301
395.325
395.354
395.387
400
400
400
400
400
399.883
399.753
399.612
399.462
399.305
399.143
398.978
398.81
398.641
398.471
398.302
398.133
397.966
397.8
397.635
397.472
397.309
397.146
396.984
396.821
396.66
396.499
396.339
396.181
396.024
395.87
395.718
395.569
395.424
395.284
395.291
395.307
395.331
395.36
395.393
400
400
400
400
400
399.883
399.753
399.612
399.462
399.306
399.144
398.979
398.811
398.642
398.473
398.304
398.136
397.969
397.803
397.638
397.474
397.311
397.149
396.986
396.824
396.663
396.502
396.343
396.185
396.028
395.874
395.722
395.573
395.428
395.288
395.294
395.31
395.334
395.363
395.397
400
400
400
400
400
399.883
399.754
399.613
399.464
399.307
399.146
398.981
398.814
398.646
398.477
398.309
398.141
397.974
397.808
397.643
397.479
397.316
397.154
396.992
396.83
396.669
396.509
396.349
396.191
396.035
395.88
395.729
395.58
395.435
395.294
395.3
395.316
395.34
395.369
395.402
400
400
400
400
400
399.884
399.754
399.614
399.465
399.309
399.147
398.983
398.816
398.648
398.48
398.312
398.145
397.978
397.812
397.647
397.482
397.319
397.156
396.994
396.833
396.672
396.512
396.353
396.195
396.039
395.885
395.733
395.584
395.439
395.297
395.304
395.32
395.344
395.372
395.406
400
400
400
400
400
399.884
399.755
399.615
399.466
399.31
399.149
398.985
398.819
398.651
398.483
398.316
398.149
397.982
397.816
397.65
397.485
397.322
397.159
396.998
396.837
396.677
396.517
396.358
396.201
396.045
395.891
395.739
395.59
395.444
395.302
395.308
395.324
395.348
395.377
395.41
400
400
400
400
400
399.884
399.756
399.616
399.467
399.312
399.151
398.987
398.82
398.653
398.485
398.318
398.151
397.984
397.818
397.652
397.487
397.323
397.16
396.999
396.839
396.679
396.52
396.361
396.204
396.048
395.894
395.742
395.593
395.447
395.304
395.311
395.327
395.35
395.379
395.413
400
400
400
400
400
399.885
399.756
399.617
399.468
399.313
399.152
398.988
398.821
398.654
398.486
398.319
398.152
397.985
397.819
397.652
397.487
397.323
397.161
397
396.84
396.681
396.522
396.364
396.207
396.051
395.897
395.745
395.596
395.45
395.306
395.313
395.329
395.352
395.381
395.414
400
400
400
400
400
399.885
399.758
399.619
399.47
399.315
399.154
398.99
398.823
398.655
398.487
398.32
398.153
397.986
397.819
397.653
397.487
397.323
397.161
397
396.841
396.682
396.523
396.365
396.208
396.053
395.899
395.747
395.597
395.45
395.306
395.312
395.328
395.351
395.38
395.414
400
400
400
400
400
399.886
399.758
399.619
399.471
399.316
399.155
398.99
398.824
398.655
398.487
398.319
398.152
397.985
397.818
397.652
397.486
397.323
397.16
397
396.84
396.681
396.522
396.365
396.208
396.052
395.898
395.746
395.596
395.448
395.304
395.31
395.326
395.349
395.378
395.411
400
400
400
400
400
399.886
399.759
399.62
399.472
399.317
399.156
398.991
398.824
398.656
398.487
398.319
398.151
397.984
397.817
397.651
397.486
397.323
397.161
397
396.84
396.681
396.522
396.364
396.207
396.051
395.897
395.744
395.594
395.446
395.301
395.306
395.322
395.346
395.374
395.408
400
400
400
400
400
399.887
399.76
399.621
399.473
399.318
399.157
398.992
398.825
398.656
398.487
398.318
398.15
397.982
397.816
397.65
397.486
397.322
397.16
396.999
396.839
396.679
396.52
396.362
396.204
396.048
395.893
395.74
395.589
395.441
395.295
395.301
395.316
395.34
395.368
395.402
400
400
400
400
400
399.887
399.76
399.622
399.474
399.319
399.158
398.993
398.825
398.657
398.487
398.318
398.149
397.982
397.815
397.65
397.486
397.323
397.161
396.999
396.838
396.678
396.519
396.36
396.202
396.045
395.89
395.737
395.585
395.436
395.29
395.296
395.312
395.335
395.364
395.397
400
400
400
400
400
399.887
399.761
399.623
399.475
399.319
399.158
398.993
398.826
398.656
398.487
398.317
398.148
397.98
397.814
397.649
397.485
397.322
397.16
396.998
396.836
396.675
396.515
396.356
396.198
396.041
395.885
395.731
395.579
395.43
395.283
395.289
395.305
395.328
395.357
395.39
400
400
400
400
400
399.887
399.761
399.623
399.475
399.32
399.159
398.994
398.827
398.657
398.487
398.317
398.148
397.981
397.815
397.65
397.486
397.323
397.16
396.998
396.836
396.674
396.514
396.354
396.196
396.038
395.882
395.728
395.576
395.426
395.279
395.285
395.301
395.324
395.353
395.386
400
400
400
400
400
399.887
399.761
399.623
399.476
399.32
399.159
398.994
398.826
398.657
398.487
398.317
398.147
397.979
397.813
397.649
397.485
397.321
397.158
396.995
396.833
396.671
396.51
396.35
396.191
396.033
395.877
395.722
395.57
395.42
395.273
395.278
395.294
395.318
395.346
395.38
400
400
400
400
400
399.888
399.762
399.624
399.476
399.321
399.161
398.996
398.828
398.659
398.489
398.319
398.149
397.982
397.815
397.651
397.486
397.323
397.159
396.996
396.833
396.671
396.51
396.35
396.191
396.033
395.876
395.722
395.569
395.419
395.271
395.277
395.292
395.316
395.344
395.378
400
400
400
400
400
399.888
399.762
399.624
399.477
399.322
399.161
398.996
398.828
398.659
398.489
398.318
398.149
397.981
397.815
397.649
397.485
397.32
397.156
396.993
396.83
396.668
396.506
396.346
396.186
396.028
395.871
395.716
395.563
395.412
395.264
395.27
395.285
395.309
395.337
395.371
400
400
400
400
400
399.888
399.762
399.625
399.478
399.323
399.163
398.998
398.831
398.662
398.491
398.321
398.152
397.983
397.817
397.651
397.486
397.321
397.156
396.992
396.828
396.666
396.503
396.342
396.182
396.023
395.865
395.709
395.555
395.404
395.255
395.26
395.275
395.298
395.326
395.359
400
400
400
400
400
399.888
399.762
399.625
399.477
399.322
399.162
398.996
398.828
398.658
398.487
398.315
398.144
397.974
397.806
397.638
397.471
397.303
397.137
396.97
396.804
396.639
396.475
396.311
396.148
395.986
395.825
395.666
395.509
395.355
395.203
395.207
395.221
395.243
395.271
395.303
400
400
400
400
400
399.888
399.762
399.624
399.476
399.319
399.156
398.989
398.817
398.644
398.468
398.292
398.117
397.941
397.767
397.593
397.419
397.244
397.07
396.897
396.723
396.55
396.377
396.205
396.034
395.863
395.694
395.526
395.36
395.196
395.034
395.036
395.048
395.069
395.096
395.127
400
400
400
400
400
399.885
399.755
399.611
399.454
399.288
399.114
398.934
398.749
398.559
398.367
398.173
397.978
397.783
397.588
397.392
397.195
396.998
396.801
396.603
396.405
396.206
396.008
395.81
395.612
395.415
395.219
395.024
394.83
394.639
394.45
394.45
394.464
394.49
394.521
394.556
400
400
400
400
400
399.866
399.711
399.535
399.342
399.134
398.915
398.686
398.45
398.208
397.961
397.711
397.46
397.207
396.953
396.698
396.442
396.184
395.925
395.666
395.406
395.145
394.884
394.623
394.362
394.101
393.842
393.584
393.328
393.075
392.827
392.9
392.994
393.098
393.204
393.303
400
400
400
400
400
399.894
399.776
399.646
399.505
399.353
399.191
399.019
398.839
398.65
398.455
398.253
398.045
397.833
397.616
397.396
397.172
396.945
396.715
396.482
396.246
396.007
395.766
395.524
395.282
395.038
394.796
394.554
394.315
394.079
393.849
393.846
393.856
393.878
393.908
393.935
400
400
400
400
400
399.908
399.808
399.701
399.586
399.465
399.338
399.204
399.066
398.922
398.775
398.623
398.469
398.311
398.151
397.988
397.824
397.658
397.49
397.32
397.148
396.974
396.799
396.624
396.448
396.272
396.096
395.921
395.747
395.576
395.407
395.37
395.339
395.316
395.297
395.282
400
400
400
400
400
399.91
399.813
399.71
399.601
399.486
399.367
399.244
399.116
398.985
398.852
398.715
398.577
398.437
398.295
398.153
398.009
397.865
397.719
397.571
397.423
397.274
397.124
396.974
396.824
396.674
396.525
396.377
396.23
396.086
395.944
395.916
395.892
395.872
395.857
395.845
400
400
400
400
400
399.91
399.813
399.71
399.602
399.488
399.37
399.248
399.123
398.995
398.865
398.732
398.598
398.463
398.326
398.189
398.052
397.914
397.774
397.634
397.493
397.351
397.209
397.067
396.925
396.784
396.643
396.504
396.367
396.232
396.099
396.075
396.055
396.039
396.027
396.019
400
400
400
400
400
399.91
399.813
399.71
399.602
399.489
399.371
399.25
399.125
398.998
398.868
398.736
398.603
398.469
398.335
398.199
398.064
397.927
397.79
397.652
397.513
397.374
397.234
397.095
396.956
396.817
396.68
396.544
396.409
396.277
396.148
396.126
396.107
396.093
396.082
396.076
400
400
400
400
400
399.909
399.813
399.71
399.601
399.487
399.369
399.248
399.123
398.995
398.866
398.734
398.601
398.467
398.333
398.198
398.063
397.927
397.79
397.652
397.514
397.375
397.236
397.097
396.959
396.821
396.685
396.549
396.416
396.285
396.157
396.135
396.117
396.103
396.093
396.088
400
400
400
400
400
399.909
399.813
399.71
399.601
399.487
399.37
399.248
399.123
398.996
398.866
398.735
398.602
398.468
398.334
398.199
398.065
397.929
397.792
397.655
397.517
397.378
397.24
397.101
396.963
396.826
396.689
396.554
396.421
396.29
396.162
396.141
396.123
396.109
396.099
396.095
400
400
400
400
400
399.909
399.813
399.71
399.601
399.487
399.369
399.247
399.123
398.995
398.865
398.734
398.601
398.468
398.333
398.199
398.064
397.929
397.792
397.655
397.516
397.378
397.239
397.101
396.963
396.826
396.689
396.554
396.421
396.291
396.163
396.141
396.123
396.11
396.1