/*--------------------------------*- C++ -*----------------------------------*\
| =========                 |                                                 |
| \\      /  F ield         | OpenFOAM: The Open Source CFD Toolbox           |
|  \\    /   O peration     | Version:  5.0                                   |
|   \\  /    A nd           | Web:      www.OpenFOAM.org                      |
|    \\/     M anipulation  |                                                 |
\*---------------------------------------------------------------------------*/
FoamFile
{
    version     2.0;
    format      ascii;
    class       volScalarField;
    location    "500/air";
    object      alphat;
}
// * * * * * * * * * * * * * * * * * * * * * * * * * * * * * * * * * * * * * //

dimensions      [1 -1 -1 0 0 0 0];

internalField   nonuniform List<scalar> 
243000
(
0.000212234
0.000209798
0.000201878
0.000192399
0.000182067
0.000171494
0.000161075
0.000151117
0.00014179
0.000133341
0.000125905
0.000119826
0.000114728
0.000110261
0.000105972
0.000101634
9.68058e-05
9.21245e-05
8.79307e-05
8.76642e-05
9.44051e-05
0.000102404
0.000108693
0.000114597
0.00012048
0.000126434
0.000133088
0.000140826
0.00015158
0.000166675
0.00097841
0.000996014
0.000981542
0.000958634
0.000930713
0.000899897
0.000867454
0.000834376
0.000801252
0.00076937
0.000739496
0.000713425
0.00069026
0.000670637
0.000651086
0.000629424
0.000601563
0.000575917
0.000560163
0.000583505
0.000647775
0.000692329
0.000703175
0.000710668
0.000718457
0.000726147
0.000735712
0.000745689
0.000765607
0.000801521
0.00108204
0.00109552
0.00107907
0.00105353
0.00102256
0.000988491
0.000952639
0.000916112
0.000879678
0.000844916
0.000812899
0.000785559
0.000761038
0.000739779
0.000718108
0.000693768
0.000661989
0.000633647
0.000622948
0.000665629
0.000752657
0.000807473
0.000816015
0.000818268
0.000824655
0.000832196
0.000842054
0.000852095
0.000871479
0.0009055
0.0011495
0.00115852
0.00114235
0.00111707
0.00108611
0.0010517
0.00101508
0.0009774
0.000939651
0.000903706
0.000871052
0.000843751
0.000818838
0.000796239
0.000772334
0.000744816
0.000708784
0.00067658
0.000669411
0.000724334
0.000827855
0.000891951
0.000901827
0.00089944
0.000903969
0.000911319
0.000921425
0.000931727
0.000950584
0.000982837
0.00119436
0.00120043
0.00118529
0.00116135
0.0011317
0.00109832
0.00106225
0.00102465
0.000986722
0.000950644
0.000918232
0.000891535
0.000866634
0.00084291
0.000816865
0.000786045
0.000745877
0.000711043
0.00070806
0.000765933
0.000880839
0.000953522
0.00096703
0.000961823
0.000964113
0.000971435
0.00098199
0.0009929
0.00101151
0.00104243
0.00122458
0.00122883
0.00121496
0.00119282
0.00116507
0.00113336
0.0010985
0.00106166
0.00102424
0.000988668
0.000956988
0.000931115
0.000906378
0.00088168
0.000853622
0.000819574
0.000775501
0.00074036
0.000739654
0.000796897
0.000916513
0.000996852
0.00101523
0.00100948
0.00100981
0.00101731
0.00102854
0.00104034
0.00105878
0.00108868
0.00124478
0.00124788
0.00123538
0.00121524
0.00118965
0.0011599
0.0011266
0.00109091
0.0010544
0.00101972
0.000989037
0.00096402
0.000939459
0.000913907
0.000883941
0.00084686
0.000799445
0.000765072
0.00076557
0.000822946
0.000937766
0.00102535
0.00104912
0.0010446
0.00104366
0.00105186
0.00106421
0.0010771
0.00109535
0.00112454
0.00125748
0.00125999
0.00124894
0.00123092
0.00120762
0.00117998
0.00114841
0.00111408
0.00107874
0.00104517
0.00101558
0.000991344
0.000966913
0.000940579
0.000908844
0.000869005
0.00081987
0.000786389
0.000787339
0.000843666
0.000950099
0.00104138
0.00107095
0.00106883
0.0010675
0.0010768
0.00109084
0.00110525
0.00112347
0.00115233
0.00126434
0.00126674
0.00125716
0.00124132
0.0012204
0.00119494
0.00116521
0.00113237
0.00109833
0.00106597
0.00103748
0.00101391
0.000989536
0.000962468
0.000929116
0.000886879
0.000838099
0.00080505
0.000805956
0.000860633
0.000961148
0.00104849
0.00108281
0.00108359
0.00108262
0.00109335
0.00110961
0.00112603
0.00114456
0.00117351
0.00126668
0.00126937
0.00126134
0.00124762
0.00122895
0.00120565
0.00117783
0.0011466
0.00111395
0.00108285
0.00105539
0.00103233
0.00100797
0.000980176
0.00094541
0.000901223
0.000853849
0.000821376
0.000821942
0.000874536
0.000969417
0.0010501
0.00108649
0.00109022
0.00109009
0.00110228
0.00112112
0.00114015
0.00115933
0.00118885
0.00126533
0.00126882
0.00126248
0.00125076
0.00123422
0.00121294
0.00118689
0.00115729
0.00112612
0.0010963
0.00106979
0.00104713
0.0010227
0.000994238
0.00095829
0.000912662
0.000867337
0.000835641
0.00083554
0.000885555
0.000975293
0.00105164
0.00108529
0.0010902
0.00109103
0.00110484
0.00112622
0.00114813
0.00116867
0.00119935
0.00126097
0.00126545
0.00126109
0.0012514
0.0012368
0.0012174
0.00119305
0.00116497
0.00113525
0.0011067
0.00108107
0.00105871
0.00103415
0.00100512
0.000968252
0.000922003
0.000879039
0.000848155
0.000846998
0.000893926
0.000978873
0.00105132
0.00108361
0.00108832
0.00108761
0.00110225
0.00112642
0.00115099
0.00117327
0.00120526
0.00125386
0.00125957
0.00125726
0.0012498
0.00123718
0.00121946
0.0011967
0.00117009
0.00114169
0.00111438
0.00108956
0.00106741
0.0010427
0.00101325
0.000975733
0.000930785
0.000889497
0.000859209
0.000856578
0.000899928
0.000980588
0.00104931
0.00108073
0.00108564
0.00108452
0.00109592
0.00112178
0.00114946
0.0011739
0.00120715
0.00124405
0.00125136
0.00125129
0.00124604
0.00123547
0.00121952
0.00119818
0.00117296
0.00114586
0.00111958
0.00109553
0.00107353
0.00104871
0.00101897
0.000981077
0.000938486
0.000898842
0.000869011
0.000864539
0.000903915
0.000979994
0.00104569
0.00107663
0.00108199
0.00108102
0.00109003
0.00111324
0.00114363
0.00117066
0.00120549
0.00123174
0.00124108
0.00124334
0.00124036
0.00123176
0.00121753
0.00119776
0.00117389
0.00114799
0.0011227
0.00109921
0.0010773
0.00105245
0.00102259
0.000984673
0.000945082
0.000907197
0.000877727
0.000871162
0.000906208
0.000977445
0.00104052
0.00107123
0.00107729
0.00107673
0.00108412
0.00110486
0.00113423
0.0011639
0.00120039
0.00121718
0.00122885
0.00123353
0.00123284
0.00122613
0.00121357
0.00119534
0.00117297
0.00114836
0.00112399
0.00110102
0.00107918
0.00105431
0.00102443
0.000988125
0.000951015
0.000914774
0.000885565
0.000876713
0.000907263
0.000973196
0.00103385
0.00106454
0.00107148
0.00107153
0.00107793
0.00109661
0.00112287
0.00115406
0.00119218
0.00120064
0.0012148
0.00122196
0.00122353
0.00121869
0.00120764
0.00119099
0.00117014
0.00114694
0.00112365
0.00110128
0.00107956
0.00105474
0.00102503
0.000991372
0.000956482
0.000921762
0.000892716
0.000881456
0.000906951
0.000967431
0.00102576
0.00105659
0.00106456
0.00106537
0.00107128
0.00108831
0.00111231
0.00114172
0.0011812
0.00118312
0.00119919
0.00120873
0.00121244
0.00120948
0.00119995
0.00118472
0.00116548
0.00114373
0.00112157
0.00109986
0.00107836
0.00105373
0.00102541
0.000994457
0.000961649
0.000928344
0.000899355
0.000885628
0.000905683
0.000960382
0.00101622
0.00104741
0.00105653
0.00105827
0.00106411
0.00107979
0.00110218
0.00112971
0.00116771
0.00116686
0.00118356
0.00119432
0.00119979
0.00119864
0.00119062
0.00117683
0.00115907
0.00113882
0.00111783
0.00109686
0.00107571
0.00105226
0.00102626
0.000997596
0.000966692
0.000934692
0.000905694
0.000889521
0.000903818
0.000952301
0.00100549
0.00103707
0.00104744
0.0010503
0.00105639
0.00107109
0.00109226
0.00111825
0.00115223
0.00115152
0.0011689
0.00118076
0.00118704
0.00118694
0.0011801
0.00116779
0.00115168
0.00113316
0.00111359
0.0010937
0.0010735
0.0010517
0.0010276
0.00100094
0.000971773
0.000940985
0.000911947
0.00089343
0.000901764
0.000943456
0.000993739
0.00102565
0.00103738
0.00104154
0.00104813
0.00106217
0.0010824
0.00110711
0.00113764
0.00113686
0.00115496
0.00116786
0.00117493
0.00117585
0.00117019
0.0011593
0.00114483
0.00112801
0.00110995
0.00109131
0.00107224
0.00105195
0.0010295
0.00100461
0.00097704
0.000947383
0.000918315
0.000897559
0.000899957
0.000934259
0.000981152
0.00101331
0.0010265
0.00103214
0.00103941
0.00105305
0.00107248
0.00109614
0.00112403
0.00112266
0.00114158
0.0011554
0.00116326
0.00116521
0.00116074
0.00115126
0.0011384
0.00112328
0.00110681
0.00108956
0.00107178
0.00105288
0.00103198
0.00100871
0.000982638
0.00095406
0.000925025
0.000902206
0.00089889
0.000925437
0.000968083
0.00100026
0.00101501
0.00102231
0.00103038
0.00104384
0.0010626
0.0010853
0.00111107
0.00110876
0.00112849
0.00114322
0.00115192
0.00115487
0.00115162
0.00114355
0.0011323
0.0011189
0.00110411
0.00108837
0.00107202
0.00105446
0.00103507
0.00101337
0.000988775
0.000961286
0.000932393
0.000907713
0.0008991
0.000917669
0.000955103
0.000986818
0.00100318
0.00101227
0.00102123
0.00103467
0.00105284
0.00107457
0.00109859
0.00109512
0.00111552
0.00113129
0.00114084
0.00114475
0.00114273
0.0011361
0.00112651
0.0011149
0.00110187
0.00108784
0.00107298
0.00105686
0.00103904
0.00101896
0.000995936
0.000969646
0.000941078
0.000914833
0.000901253
0.000911864
0.000943179
0.000973659
0.00099171
0.00100242
0.00101229
0.00102578
0.0010434
0.00106416
0.00108657
0.00108192
0.00110295
0.00111955
0.00112999
0.00113476
0.00113402
0.0011289
0.00112105
0.00111134
0.00110023
0.00108823
0.00107505
0.0010607
0.00104476
0.00102659
0.00100544
0.000980636
0.000952673
0.000925155
0.000906966
0.000909794
0.000933883
0.00096214
0.00098149
0.000993433
0.00100411
0.00101762
0.00103465
0.00105432
0.00107512
0.00106954
0.001091
0.00110808
0.00111953
0.00112505
0.00112563
0.0011222
0.00111634
0.00110887
0.00110029
0.00109064
0.00108002
0.00106823
0.00105495
0.00103944
0.00102082
0.000998
0.000971005
0.000942486
0.00091983
0.00091495
0.000930962
0.000955056
0.00097452
0.000986617
0.000997679
0.00101099
0.00102721
0.00104556
0.00106464
0.00105937
0.00108092
0.00109817
0.00111048
0.001117
0.00111916
0.00111812
0.00111518
0.00111101
0.00110607
0.00110044
0.0010941
0.00108668
0.00107761
0.00106616
0.001051
0.00103072
0.00100494
0.000975586
0.000948837
0.000935982
0.000942697
0.000960383
0.00097662
0.000987065
0.000996968
0.00100897
0.00102341
0.00103963
0.00105644
0.00105775
0.00107902
0.00109667
0.00111047
0.00111985
0.00112549
0.00112918
0.00113178
0.00113373
0.00113559
0.00113735
0.00113864
0.00113857
0.00113591
0.00112969
0.00111849
0.0011006
0.00107602
0.00104612
0.00101596
0.000995559
0.000992458
0.00100003
0.00100723
0.00101189
0.00101716
0.00102453
0.00103414
0.00104556
0.00105797
0.00111838
0.00113889
0.00115803
0.00117541
0.00119119
0.00120471
0.00121778
0.00122983
0.00124109
0.00125338
0.00126572
0.00127694
0.00128513
0.0012884
0.00128581
0.00127681
0.00126025
0.00123702
0.00120881
0.00117958
0.00115702
0.0011472
0.00114299
0.00113765
0.00113231
0.00112777
0.00112453
0.00112262
0.00112245
0.00112438
0.00149708
0.00150872
0.00152057
0.00153235
0.00154251
0.00155358
0.0015646
0.0015722
0.00157818
0.00158985
0.00160137
0.00161064
0.00161518
0.00161311
0.00160536
0.00159401
0.00157873
0.00156141
0.00154452
0.00153099
0.00152315
0.0015236
0.00152628
0.0015274
0.00152709
0.00152515
0.00152184
0.00151701
0.00151097
0.00150473
0.000260078
0.00026192
0.000253818
0.000242238
0.000228841
0.000214665
0.000200344
0.000186346
0.000172893
0.000160375
0.000148941
0.00013908
0.000130197
0.000122851
0.000116029
0.00011114
0.000111684
0.000130061
0.000149059
0.000162322
0.000170543
0.000175768
0.000178242
0.00017933
0.000179738
0.00017964
0.000180583
0.000180898
0.000186957
0.00019601
0.0011781
0.00123524
0.00112373
0.000988087
0.000864243
0.000759306
0.000673084
0.000603006
0.000545911
0.000501424
0.000464374
0.000433863
0.000417235
0.000432009
0.000453749
0.000483146
0.000529447
0.000651856
0.000782204
0.000861675
0.000887222
0.000898093
0.000894232
0.000891436
0.000887902
0.000879833
0.000867746
0.000831631
0.000779616
0.000755481
0.00196782
0.00211808
0.00200783
0.00182099
0.00162262
0.00144009
0.00128258
0.00115181
0.00104526
0.000964115
0.000897545
0.000844328
0.000814141
0.000833467
0.000858981
0.000894038
0.000965848
0.00117525
0.00141501
0.00156903
0.00163287
0.00166006
0.00165291
0.00163789
0.0016228
0.001603
0.00157655
0.00151715
0.00142725
0.00139807
0.0026035
0.00279639
0.00271954
0.0025315
0.00230287
0.00207473
0.00186684
0.00168887
0.00154369
0.00142833
0.0013355
0.00126483
0.00121992
0.00123103
0.0012468
0.00127528
0.0013624
0.00162944
0.00195117
0.00217715
0.00228597
0.00233496
0.00232986
0.00230725
0.00228415
0.00225756
0.00222298
0.00215155
0.00204185
0.002016
0.00312926
0.00333035
0.00328904
0.00311979
0.00288671
0.00263653
0.00239695
0.00218571
0.00200879
0.00186961
0.00175878
0.00167348
0.00161357
0.00160879
0.00160699
0.00162162
0.00171539
0.00201965
0.00240228
0.00269042
0.00284257
0.00291602
0.00292629
0.00290082
0.00286739
0.0028386
0.00280205
0.00272968
0.00261254
0.00259004
0.00356107
0.00375987
0.00375195
0.0036087
0.00338496
0.00312817
0.00287105
0.0026369
0.00243784
0.00228341
0.00215945
0.00206225
0.00198735
0.00196194
0.00193791
0.00193362
0.00202447
0.00234518
0.00276292
0.0031109
0.0033079
0.00340582
0.00343371
0.00341851
0.00339328
0.00335888
0.00331819
0.00324679
0.00313376
0.00311192
0.00392949
0.00411608
0.00413392
0.00401828
0.0038112
0.00355778
0.00329345
0.00304638
0.00283238
0.00266761
0.00253536
0.00242747
0.0023372
0.00228852
0.00223987
0.00221379
0.00229775
0.00261525
0.00303843
0.00343597
0.00368733
0.00381005
0.00385599
0.00385306
0.00383978
0.003821
0.00378985
0.00371485
0.00359835
0.00357686
0.0042409
0.00441123
0.00445022
0.00436291
0.00417667
0.00393313
0.00366919
0.00341646
0.00319411
0.00302008
0.00288375
0.00276675
0.00266087
0.00258769
0.0025136
0.00246628
0.0025459
0.00284914
0.00327461
0.00369184
0.0039851
0.00413485
0.00419747
0.00421004
0.00420833
0.00420737
0.00419574
0.00413987
0.00402362
0.00400422
0.00449834
0.00465782
0.00471133
0.00465203
0.00448965
0.0042605
0.00400248
0.00374955
0.00352529
0.00334418
0.00320228
0.00307894
0.00295727
0.00285976
0.00276056
0.00269675
0.00276806
0.00305189
0.00347933
0.00391045
0.00422045
0.00438841
0.00446507
0.00449206
0.00450499
0.00452174
0.0045304
0.00450099
0.00439336
0.00437738
0.0047323
0.00487586
0.00493561
0.00489518
0.00475532
0.00454412
0.00429635
0.00404779
0.00382447
0.00364064
0.00348995
0.00335909
0.00322572
0.00310546
0.00298292
0.00291316
0.00296573
0.0032257
0.00365219
0.00408131
0.00440345
0.00459586
0.00467302
0.00470479
0.00473248
0.00476843
0.00479967
0.00479524
0.00470988
0.00470072
0.00494207
0.00507068
0.00513174
0.00510433
0.00498127
0.00478564
0.00455223
0.00431219
0.00409223
0.0039083
0.00375211
0.00361042
0.00346279
0.00332411
0.00318455
0.00311235
0.00313977
0.00337229
0.00378087
0.00419582
0.00451787
0.00472339
0.00481466
0.00485557
0.00489611
0.00494269
0.00498996
0.00502457
0.00497671
0.00497985
0.00512406
0.00524225
0.00530623
0.00528514
0.00517576
0.00499417
0.00477111
0.00454273
0.00432936
0.0041461
0.00398647
0.00383742
0.00367711
0.0035202
0.00337085
0.00329056
0.00329039
0.00349122
0.00386601
0.00425759
0.00457565
0.00479914
0.00490021
0.00494755
0.005004
0.00506931
0.00513445
0.00518377
0.00517947
0.00519724
0.00526746
0.00538066
0.00544927
0.00544259
0.00534213
0.00517297
0.00496117
0.00474067
0.00453601
0.0043551
0.0041937
0.00403824
0.00386661
0.00369683
0.00354872
0.00344649
0.00341808
0.00358309
0.00391139
0.00427327
0.00459152
0.0048255
0.00493532
0.00499088
0.00505562
0.00514476
0.00523346
0.00530578
0.00533499
0.00536409
0.00536559
0.00547829
0.0055559
0.00556724
0.00548469
0.00532484
0.0051243
0.00491324
0.00471508
0.00453763
0.00437526
0.0042143
0.00403492
0.00385935
0.00371468
0.00358316
0.00352236
0.00365026
0.00392248
0.00425612
0.00456908
0.00480688
0.00492462
0.00499006
0.00506509
0.00516875
0.00528806
0.00538698
0.00544745
0.00550113
0.00542309
0.00554258
0.00563212
0.00565913
0.00559606
0.0054534
0.00526263
0.0050625
0.00487049
0.00469685
0.00453431
0.00436942
0.00418716
0.00401523
0.00386483
0.00370164
0.00360808
0.00369243
0.00390788
0.00421033
0.00451233
0.0047492
0.00487312
0.00494995
0.00503713
0.00515404
0.00529465
0.00543021
0.00551954
0.0055998
0.00544766
0.00557977
0.00568298
0.00572504
0.00567782
0.00555326
0.00537835
0.00519131
0.0050075
0.00483689
0.00467526
0.00450865
0.00432982
0.00416381
0.00399227
0.00380201
0.00367562
0.00370845
0.00387617
0.00414115
0.00442605
0.00465867
0.00478661
0.00487568
0.00497626
0.00510598
0.00526457
0.00543432
0.0055536
0.00566202
0.00544362
0.00559363
0.00571128
0.00576702
0.00573571
0.00562716
0.0054747
0.00530321
0.00512921
0.00496232
0.00480413
0.00463812
0.00446686
0.00429914
0.00409898
0.00388472
0.00372646
0.0037104
0.0038274
0.0040547
0.00431565
0.00454114
0.00467154
0.00477295
0.00488747
0.00502971
0.00520287
0.00539902
0.00555359
0.00569048
0.0054177
0.00559216
0.00572173
0.00578775
0.00577466
0.00568248
0.00555633
0.00540191
0.00523733
0.00507789
0.00492134
0.00476236
0.00459396
0.00440832
0.00418445
0.00394948
0.00376109
0.00369674
0.00375414
0.00394982
0.00418644
0.00440281
0.00453403
0.00464735
0.00477625
0.00493088
0.00511515
0.00533033
0.00552122
0.00569042
0.00536031
0.00556624
0.00572176
0.00579982
0.0058043
0.00573788
0.00562802
0.00548663
0.00533548
0.00518517
0.00503151
0.00487194
0.00469244
0.00448744
0.00424624
0.00399431
0.00377849
0.00367112
0.00367567
0.00382437
0.00404267
0.00424862
0.00437926
0.00450383
0.0046486
0.00481422
0.0050068
0.00523463
0.00545474
0.00567607
0.00527931
0.00550439
0.00568053
0.005789
0.00581622
0.00576976
0.00567721
0.00555187
0.00541111
0.00526428
0.00510937
0.00494295
0.00475131
0.00453213
0.00427831
0.00401405
0.00377759
0.00362978
0.00359855
0.00369017
0.00387984
0.00408268
0.00421391
0.00434987
0.00450685
0.00468327
0.00488346
0.00511871
0.00535966
0.0056207
0.00517902
0.00541489
0.00561227
0.00573814
0.00578938
0.00576258
0.0056847
0.00557542
0.00544441
0.00530024
0.00514214
0.00496711
0.00476282
0.00453241
0.00426954
0.00399829
0.00374824
0.00356821
0.00350327
0.00355542
0.00371112
0.00390408
0.00405034
0.00419854
0.00436602
0.00454875
0.00475141
0.00498872
0.00524273
0.00552621
0.00506201
0.00530502
0.00550833
0.00564419
0.00572592
0.00571821
0.00565134
0.00555337
0.00542866
0.00528406
0.00511891
0.00493221
0.00471303
0.00447006
0.0042025
0.00393001
0.00367435
0.00347648
0.00338862
0.00341765
0.00354176
0.00371925
0.00388367
0.00405607
0.0042347
0.00442413
0.00462991
0.00486504
0.00512252
0.00540538
0.00492964
0.00516774
0.00536777
0.00552926
0.00562706
0.00563081
0.00557165
0.00547735
0.00535159
0.00519911
0.00501924
0.00481488
0.00457869
0.00432265
0.00405447
0.00378838
0.00353702
0.00333652
0.00323779
0.00325358
0.00336295
0.00352296
0.00370638
0.0038952
0.00408594
0.00428464
0.00449783
0.00473097
0.00498494
0.00525429
0.00477214
0.00500228
0.00521554
0.00538561
0.00548355
0.00548611
0.00542583
0.00532734
0.00518852
0.00501784
0.00481479
0.00458689
0.00433479
0.00407056
0.00380766
0.00356018
0.00332515
0.0031373
0.00303915
0.00305347
0.003157
0.00331819
0.00351969
0.00372404
0.00392745
0.00413987
0.0043608
0.00459452
0.00484251
0.00508966
0.00460732
0.00483563
0.00503527
0.00519238
0.00526725
0.00525389
0.00517834
0.00505945
0.00489853
0.00470444
0.00447937
0.00423379
0.0039774
0.00372264
0.0034806
0.00326903
0.00306557
0.00290246
0.00281068
0.00281796
0.00291822
0.00308824
0.00331014
0.00352301
0.00374045
0.00396636
0.00419684
0.004433
0.00467191
0.00489169
0.00440397
0.00461075
0.00477895
0.00489804
0.00492791
0.0048806
0.00477725
0.00463328
0.00445438
0.00425111
0.00403026
0.00380105
0.00357127
0.00336059
0.00316618
0.00300776
0.00285031
0.00271596
0.00262722
0.00261457
0.00268902
0.00284633
0.0030574
0.00326427
0.00348472
0.00371975
0.00395966
0.00420117
0.00443649
0.00464165
0.00408704
0.00425659
0.00436912
0.00443019
0.00441079
0.00433584
0.00422171
0.00408163
0.00392339
0.00375695
0.00358966
0.00342714
0.00327008
0.00312785
0.00300198
0.00289814
0.00278525
0.00267783
0.00259064
0.0025499
0.00257645
0.00267918
0.00282423
0.00298087
0.00316433
0.00337296
0.00359788
0.00383149
0.00406263
0.00426195
0.00362238
0.00373631
0.00380311
0.0038336
0.00380834
0.00375578
0.00368544
0.00360405
0.00351562
0.00342652
0.00334187
0.0032618
0.00317846
0.00309231
0.00301066
0.00293863
0.00285683
0.0027757
0.00270256
0.00265341
0.00264843
0.00269736
0.00277118
0.00285281
0.00295495
0.0030805
0.0032281
0.00339434
0.00356707
0.00372858
0.00327275
0.00334651
0.00340006
0.00343666
0.00344398
0.00343945
0.00342579
0.00340321
0.00337191
0.00333126
0.00328773
0.00324353
0.00319154
0.00314158
0.00308428
0.00302651
0.00296791
0.002913
0.00286514
0.00282977
0.00282521
0.00285194
0.00288851
0.00293654
0.00299158
0.00305461
0.00312462
0.00320242
0.00327769
0.00334018
0.00325172
0.00329976
0.00333236
0.00335258
0.00335709
0.00335453
0.00334478
0.00333005
0.00330895
0.00328754
0.00326375
0.00323579
0.00319955
0.0031606
0.0031194
0.00308343
0.00305255
0.00302939
0.00301204
0.00300507
0.00300972
0.00303
0.00305742
0.00308982
0.00312329
0.00315628
0.00318479
0.00321161
0.00324129
0.00326712
0.000297976
0.000298271
0.000288164
0.000274956
0.00025977
0.000243627
0.000227179
0.000210878
0.000194897
0.000179602
0.000164959
0.000151444
0.000140127
0.000135649
0.000136466
0.000149058
0.000170708
0.00019637
0.000211633
0.000222086
0.000228598
0.000232479
0.000234169
0.000234622
0.000234356
0.000233466
0.000232739
0.000230713
0.000231503
0.000233506
0.00144967
0.00156361
0.00145764
0.00128873
0.00112748
0.000989424
0.000876713
0.000785091
0.000709986
0.000649816
0.00059275
0.000538215
0.000531835
0.000617798
0.000708857
0.000824691
0.000968369
0.00113485
0.0012489
0.00131168
0.00133376
0.00132923
0.00130335
0.00127282
0.00123935
0.00119885
0.00114874
0.0010723
0.000975281
0.000906376
0.00246654
0.00271236
0.00262685
0.00241253
0.00216359
0.00192616
0.00171882
0.00154422
0.00139933
0.00128444
0.00117945
0.00108235
0.00106789
0.00120495
0.00134556
0.00153413
0.00178585
0.0020742
0.00229641
0.00243568
0.00249895
0.00250423
0.00246133
0.00240359
0.00233588
0.00225176
0.00215524
0.00201897
0.00183879
0.00171701
0.00330657
0.00360021
0.00356418
0.00336207
0.00308366
0.00279076
0.0025181
0.00227935
0.00207787
0.00191996
0.00177456
0.00164906
0.00162428
0.00178013
0.00194347
0.00217205
0.00249913
0.00287626
0.00318395
0.00339483
0.00350308
0.00352972
0.00348311
0.00341091
0.00332543
0.00321891
0.00309271
0.00290556
0.0026671
0.00251286
0.0040119
0.00432495
0.00433225
0.0041592
0.0038791
0.00355862
0.00324393
0.00295973
0.00271718
0.00252515
0.00235425
0.00221132
0.0021755
0.00232837
0.00249609
0.00274083
0.00311134
0.00355439
0.00392825
0.00420166
0.00435192
0.00440502
0.00436511
0.00428949
0.00420018
0.00408744
0.00394794
0.00373115
0.00344971
0.00326778
0.00462337
0.00493479
0.00498126
0.00484204
0.00457308
0.00424154
0.00390134
0.00358656
0.00331534
0.00309858
0.00291308
0.00275938
0.00271119
0.0028469
0.0030042
0.00324776
0.00363595
0.00411727
0.00454971
0.00487649
0.0050643
0.005143
0.0051175
0.00504703
0.00495957
0.00485672
0.00471808
0.00449761
0.00419326
0.00398719
0.00516314
0.00546332
0.00554287
0.0054378
0.00518627
0.00485383
0.00449986
0.00416598
0.00387565
0.00364406
0.00344693
0.00328712
0.0032249
0.00333416
0.003472
0.00369988
0.00408428
0.00457762
0.00505486
0.0054364
0.00565676
0.00575715
0.00575012
0.00569102
0.00561376
0.00552179
0.00540231
0.00519254
0.00487804
0.00465318
0.00563709
0.00592221
0.00603444
0.00596456
0.00573365
0.00540682
0.00504766
0.00470333
0.00440156
0.0041599
0.00395124
0.00378982
0.00371222
0.00378836
0.00389886
0.00410423
0.00446701
0.00497301
0.00548494
0.00589541
0.00614443
0.0062604
0.00627145
0.00622771
0.00616715
0.00609708
0.00599657
0.00581697
0.00550627
0.00527029
0.00606855
0.00634079
0.00647119
0.0064339
0.0062253
0.00590864
0.00555066
0.0052024
0.00489452
0.00464492
0.00443194
0.00426482
0.00417022
0.00421176
0.00428988
0.00446844
0.00480362
0.00532279
0.00583838
0.00628854
0.0065619
0.00667364
0.00668184
0.00665476
0.00662238
0.00658578
0.0065128
0.00636873
0.00607983
0.00584071
0.00647788
0.00673195
0.00687102
0.00685271
0.00666711
0.0063643
0.00601272
0.00566546
0.00535508
0.00509938
0.00488129
0.00470524
0.00459716
0.00460048
0.00464912
0.00480018
0.00510499
0.005593
0.0061004
0.00656926
0.0068741
0.00699891
0.00701507
0.00699799
0.00696337
0.00692946
0.00689963
0.00682596
0.00660287
0.00637386
0.00685867
0.00710048
0.00724289
0.00723485
0.00706234
0.00677594
0.0064359
0.00609369
0.00578331
0.00552266
0.00529874
0.00511635
0.00499295
0.00495944
0.00498169
0.00510093
0.00537461
0.00581259
0.00630431
0.00678187
0.00711231
0.00724898
0.00727567
0.00727119
0.00725289
0.00722875
0.00720441
0.00715436
0.00702485
0.0068471
0.0072112
0.00745362
0.00759133
0.00758589
0.00742238
0.00714674
0.00682061
0.00648765
0.00617941
0.00591484
0.00568521
0.00549612
0.00535847
0.00529268
0.00529332
0.00537063
0.00560283
0.00598706
0.00645237
0.00692818
0.00727763
0.00743048
0.00747111
0.00748024
0.00748067
0.00747972
0.00747233
0.00744112
0.00735136
0.00724751
0.00752246
0.00776537
0.00791246
0.00790865
0.00774959
0.00748551
0.00716922
0.00684778
0.0065441
0.00627677
0.0060423
0.00584706
0.00569597
0.00560468
0.00557617
0.00560862
0.00578325
0.00611565
0.00654567
0.0070086
0.00737273
0.00754504
0.0076051
0.00763365
0.00765179
0.00767634
0.00769701
0.00769347
0.00764277
0.00758732
0.00778962
0.00803481
0.00819148
0.00819964
0.00804557
0.0077935
0.00748936
0.00717643
0.00687885
0.00661019
0.00637276
0.0061721
0.00600889
0.00589935
0.00582981
0.0058138
0.00592594
0.00619851
0.00658511
0.00702487
0.00739962
0.00759358
0.00767851
0.00773302
0.00777479
0.0078228
0.0078751
0.0079091
0.00790255
0.00789623
0.00799608
0.00825183
0.00842357
0.00844798
0.0083101
0.00807191
0.00778193
0.00747693
0.00718574
0.00691784
0.00667968
0.00647396
0.0062999
0.00616704
0.00605239
0.0059839
0.00603064
0.00623565
0.0065713
0.00697986
0.00736007
0.00757678
0.00769175
0.00777903
0.00785099
0.00792701
0.00800915
0.00808318
0.00812758
0.00817148
0.00816037
0.00843223
0.00862056
0.008656
0.00853545
0.00832104
0.00804678
0.00775203
0.00746792
0.0072031
0.00696462
0.00675303
0.00656829
0.00639966
0.00623964
0.00611514
0.00609399
0.00622681
0.00650409
0.00687748
0.00725566
0.00749593
0.00764511
0.00777163
0.0078805
0.00798975
0.00810498
0.00821751
0.00831018
0.00840284
0.00828669
0.00858187
0.00878634
0.00883116
0.00872926
0.00854061
0.00828096
0.00800363
0.00772734
0.00746626
0.0072264
0.00700737
0.00679645
0.00658984
0.00638388
0.00620186
0.00611325
0.00617228
0.00638524
0.00671922
0.00708865
0.00735245
0.0075389
0.00771054
0.00786241
0.00801045
0.00816223
0.00831381
0.0084518
0.00858444
0.00838069
0.00870454
0.00892293
0.00897265
0.00889851
0.00872665
0.00848858
0.0082307
0.00796235
0.00770206
0.00745116
0.00721494
0.00697398
0.00672855
0.0064748
0.00623607
0.0060811
0.00606132
0.00621462
0.00650577
0.00686263
0.00714749
0.00737359
0.00759409
0.00779423
0.00798671
0.00817855
0.00837029
0.00855152
0.00872124
0.00844201
0.00878949
0.00901077
0.00907568
0.00903033
0.00888022
0.00866298
0.00840928
0.00814594
0.00788267
0.00762043
0.00736163
0.00708584
0.00679985
0.00649922
0.00620736
0.00598947
0.00590225
0.00598349
0.00622875
0.00657785
0.00688104
0.00714961
0.00741866
0.00767267
0.00791526
0.00814957
0.00838258
0.00860658
0.00881604
0.00847303
0.00881908
0.00904682
0.00913004
0.00912318
0.0089769
0.00877042
0.00852556
0.00826398
0.00799354
0.00771395
0.00742641
0.00711157
0.00678342
0.00643894
0.00610064
0.0058284
0.00568052
0.00570654
0.00590787
0.00623411
0.00657706
0.00689792
0.00720874
0.00750833
0.00779236
0.00806885
0.00834336
0.00861062
0.00885746
0.00846082
0.008786
0.0090087
0.00912667
0.00913418
0.00900344
0.00880249
0.00855943
0.0082931
0.00800901
0.00770494
0.00738255
0.007026
0.00665539
0.00627239
0.00589689
0.00558313
0.00538886
0.00537347
0.00553557
0.00583326
0.00619738
0.00658619
0.0069725
0.0073228
0.0076471
0.00795726
0.00826088
0.00855674
0.0088436
0.00836499
0.00866844
0.0089001
0.00904447
0.0090577
0.0089328
0.00873074
0.00848194
0.00820248
0.00789746
0.00756227
0.00720056
0.00680314
0.00639348
0.00598094
0.00558096
0.00524068
0.00501731
0.00497897
0.00511142
0.00538185
0.00576335
0.00619816
0.00662879
0.00703926
0.00742741
0.00779266
0.0081392
0.00846753
0.00877623
0.00816649
0.00847044
0.0087139
0.00886017
0.00886382
0.00873197
0.00851876
0.00825447
0.00795347
0.00762133
0.00725575
0.00685681
0.00642682
0.00599003
0.0055624
0.00515831
0.00480923
0.00457211
0.00451596
0.0046396
0.00489021
0.00527964
0.00574886
0.00621441
0.00666472
0.00709374
0.00749676
0.00788564
0.00825807
0.00858876
0.00787699
0.00818143
0.00840443
0.008534
0.00851009
0.00835706
0.00812277
0.0078359
0.00751079
0.00715472
0.00676882
0.00635195
0.00591066
0.00547183
0.00505317
0.00467294
0.00433469
0.0040996
0.0040268
0.00412894
0.00437116
0.00475915
0.00523623
0.00571624
0.00619125
0.00665229
0.00709269
0.00751816
0.00792273
0.00826947
0.00745029
0.00773451
0.00792299
0.00800802
0.00794433
0.0077618
0.00750568
0.00720253
0.00686748
0.00650951
0.00613156
0.00573372
0.00532198
0.00491856
0.00454342
0.00421529
0.0039086
0.0036904
0.00360434
0.00366411
0.00386659
0.00423011
0.0046733
0.00512942
0.0056016
0.00607431
0.0065375
0.00698833
0.00741728
0.00777877
0.00681489
0.00706816
0.00720206
0.00723223
0.00713258
0.00693413
0.00667968
0.00639267
0.00608722
0.00577121
0.00544735
0.00511499
0.00477924
0.00445174
0.00414875
0.00388455
0.00364994
0.00347058
0.00337593
0.00338597
0.00351001
0.00377314
0.00412567
0.00450496
0.00492138
0.00535901
0.00580789
0.00625409
0.00668709
0.00706069
0.00594992
0.00615085
0.00623728
0.00623951
0.00614146
0.00597428
0.00577349
0.0055561
0.00533143
0.00510354
0.00487327
0.00463792
0.0043995
0.00415452
0.00394006
0.00374722
0.00357076
0.00342365
0.00333146
0.00331026
0.0033721
0.00353066
0.00373202
0.00399057
0.00429533
0.0046284
0.0049933
0.00537056
0.00574986
0.00610254
0.00502702
0.00517694
0.00525086
0.0052717
0.00522602
0.00513926
0.00503236
0.00491411
0.00478871
0.00465626
0.00451615
0.00436267
0.00419312
0.00402147
0.0038708
0.00371059
0.00356936
0.00345448
0.00337793
0.0033518
0.00338651
0.00348673
0.00360731
0.00374902
0.00392079
0.00413197
0.0043725