/*--------------------------------*- C++ -*----------------------------------*\
| =========                 |                                                 |
| \\      /  F ield         | OpenFOAM: The Open Source CFD Toolbox           |
|  \\    /   O peration     | Version:  5.0                                   |
|   \\  /    A nd           | Web:      www.OpenFOAM.org                      |
|    \\/     M anipulation  |                                                 |
\*---------------------------------------------------------------------------*/
FoamFile
{
    version     2.0;
    format      ascii;
    class       volScalarField;
    location    "500/air";
    object      epsilon;
}
// * * * * * * * * * * * * * * * * * * * * * * * * * * * * * * * * * * * * * //

dimensions      [0 2 -3 0 0 0 0];

internalField   nonuniform List<scalar> 
243000
(
6.85224
7.70017
7.96064
7.95911
7.74579
7.38334
6.92057
6.40254
5.86092
5.33482
4.85031
4.45222
4.09839
3.75486
3.38319
2.97769
2.51979
2.11454
1.82221
1.89192
2.3417
2.61042
2.60184
2.61022
2.63035
2.63914
2.66481
2.72241
2.9188
3.32965
4.25305
4.47629
4.28324
3.98909
3.65089
3.30116
2.9581
2.63365
2.33331
2.06652
1.83599
1.64995
1.49575
1.3724
1.25455
1.13123
0.983707
0.873517
0.847209
1.06031
1.48968
1.74744
1.72479
1.7118
1.73549
1.77307
1.83184
1.8982
2.04655
2.33814
5.7574
5.96025
5.69314
5.29654
4.8432
4.37625
3.91874
3.48676
3.0888
2.73857
2.44099
2.20555
2.00758
1.84494
1.68575
1.51688
1.31288
1.16774
1.17388
1.57222
2.29251
2.7267
2.69326
2.61973
2.62992
2.67354
2.7505
2.83612
3.02282
3.3785
6.90522
7.05372
6.75867
6.31744
5.80654
5.27337
4.74327
4.23643
3.76645
3.35281
3.00533
2.73497
2.50221
2.30157
2.098
1.87704
1.61152
1.42203
1.45288
2.0176
3.00943
3.62655
3.62321
3.4851
3.46916
3.51469
3.60694
3.71096
3.92676
4.32678
7.74235
7.85257
7.55498
7.1039
6.57346
6.01003
5.43894
4.88379
4.36382
3.90518
3.52278
3.2281
2.96731
2.73069
2.48189
2.205
1.8766
1.64987
1.70774
2.3715
3.5925
4.38788
4.4492
4.26914
4.21589
4.26196
4.36959
4.49412
4.73465
5.1678
8.34695
8.4299
8.14324
7.7034
7.17772
6.6083
6.0189
5.43573
4.88371
4.39549
3.99015
3.6788
3.39495
3.12465
2.83102
2.49698
2.10704
1.86169
1.93757
2.63064
4.02244
4.98122
5.12917
4.94004
4.8525
4.9013
5.02598
5.17357
5.43358
5.89215
8.77304
8.83597
8.56841
8.1531
7.64792
7.08884
6.49719
5.90131
5.33138
4.82576
4.40683
4.08392
3.78043
3.47904
3.14161
2.75156
2.30728
2.05391
2.14169
2.84889
4.28988
5.39867
5.64424
5.47552
5.36611
5.42519
5.57359
5.7471
6.02106
6.50118
9.05231
9.10421
8.86234
8.48082
8.00672
7.46915
6.88674
6.28957
5.71272
5.19906
4.77335
4.44201
4.12137
3.79125
3.41218
2.96932
2.49314
2.23012
2.32378
3.03542
4.43886
5.64503
5.99258
5.86575
5.75176
5.82809
6.00972
6.21602
6.50316
7.00513
9.21014
9.26014
9.0476
8.70651
8.27132
7.76321
7.19844
6.60868
6.03329
5.51871
5.09079
4.7529
4.41695
4.06038
3.64266
3.1522
2.66352
2.39168
2.48679
3.19569
4.53126
5.75027
6.18548
6.11237
6.00871
6.10924
6.33258
6.58045
6.88342
7.40939
9.27145
9.32637
9.14666
8.84804
8.45399
7.98058
7.44064
6.86532
6.29791
5.78768
5.36059
5.01709
4.66766
4.28654
3.8343
3.3037
2.81557
2.53869
2.63152
3.32952
4.60386
5.75791
6.24208
6.22625
6.14332
6.27092
6.54085
6.83951
7.16184
7.71246
9.25073
9.32292
9.17916
8.92277
8.57061
8.1325
7.61881
7.06384
6.51016
6.00857
5.58438
5.23601
4.87415
4.4713
3.98958
3.42873
2.95051
2.67167
2.75762
3.43614
4.65175
5.7348
6.19616
6.22067
6.16949
6.32159
6.63656
6.99014
7.34314
7.92568
9.16481
9.25767
9.15727
8.94332
8.63117
8.2287
7.74318
7.20942
6.67311
6.18346
5.76394
5.4115
5.03821
4.61708
4.11169
3.54001
3.07255
2.79203
2.86569
3.51591
4.6746
5.69426
6.13986
6.16439
6.10928
6.28465
6.64607
7.0477
7.43638
8.05012
9.0202
9.13794
9.082
8.91625
8.645
8.27605
7.81922
7.30875
6.79023
6.31499
5.90158
5.54546
5.16256
4.72707
4.20411
3.64385
3.18435
2.90095
2.9567
3.57075
4.67114
5.63609
6.06943
6.10078
6.04838
6.17523
6.57203
7.02595
7.45358
8.09343
8.82036
8.96935
8.96136
8.84359
8.6155
8.28194
7.85216
7.36606
6.86721
6.40523
5.99931
5.64057
5.2505
4.80456
4.27078
3.73548
3.2862
2.99924
3.03232
3.60362
4.64178
5.55952
5.9834
6.02579
5.98005
6.07471
6.42958
6.92662
7.39788
8.0659
8.57079
8.7582
8.79924
8.72964
8.5441
8.24636
7.84791
7.38624
6.90743
6.45991
6.05992
5.69895
5.3045
4.85273
4.31998
3.81607
3.37912
3.08794
3.09496
3.61798
4.58936
5.46404
5.88118
5.93697
5.90071
5.97486
6.28246
6.76341
7.27598
7.96941
8.27962
8.50967
8.59958
8.57801
8.43269
8.17058
7.80391
7.37151
6.91568
6.48266
6.08953
5.72758
5.33058
4.87641
4.36911
3.88997
3.46489
3.16845
3.14704
3.61475
4.51621
5.34986
5.76279
5.83325
5.80877
5.87147
6.14105
6.56235
7.09786
7.81227
7.955
8.2282
8.36607
8.39064
8.28474
8.05518
7.72212
7.32057
6.89116
6.47701
6.09322
5.7323
5.33509
4.88399
4.41415
3.95893
3.54523
3.24261
3.19061
3.59623
4.42494
5.21789
5.62873
5.71469
5.7039
5.76241
6.00174
6.37989
6.87692
7.60276
7.61679
7.92112
8.10286
8.16949
8.1021
7.90543
7.60325
7.2351
6.83427
6.44078
6.06861
5.71144
5.31776
4.89371
4.45772
4.02493
3.62195
3.31248
3.22778
3.56669
4.3187
5.06972
5.4799
5.58213
5.58662
5.6467
5.86304
6.20865
6.66366
7.34906
7.31197
7.62044
7.82142
7.92067
7.88954
7.72527
7.45433
7.11769
6.74726
6.37633
6.01803
5.66893
5.29968
4.90936
4.50232
4.09008
3.69688
3.38001
3.26136
3.52983
4.20066
4.90878
5.31774
5.4367
5.45827
5.52406
5.72377
6.0442
6.46499
7.06392
7.03233
7.34541
7.5629
7.67583
7.66571
7.52726
7.28843
6.98679
6.65093
6.30756
5.97005
5.63884
5.2955
4.93173
4.54993
4.15638
3.77199
3.4474
3.29462
3.48989
4.07388
4.7371
5.14411
5.28023
5.32058
5.39496
5.58328
5.88348
6.2759
6.80095
6.77188
7.09007
7.322
7.44775
7.45751
7.3435
7.1348
6.86661
6.56414
6.24921
5.93434
5.62243
5.30221
4.9619
4.60224
4.22574
3.84933
3.51693
3.33055
3.45197
3.94447
4.55785
4.96176
5.11544
5.17616
5.26099
5.44191
5.72512
6.09324
6.56155
6.52569
6.85047
7.09392
7.23181
7.26073
7.17069
6.99071
6.75472
6.48483
6.19915
5.90863
5.61827
5.31884
5.00008
4.66069
4.30015
3.9312
3.59132
3.37233
3.42137
3.82004
4.37578
4.77399
4.94569
5.02823
5.12458
5.30131
5.57005
5.91615
6.33897
6.2901
6.62158
6.87512
7.02559
7.07252
7.00612
6.8541
6.64939
6.41182
6.15635
5.89178
5.6242
5.34491
5.04722
4.72738
4.38252
4.02115
3.67457
3.42432
3.40392
3.70787
4.19776
4.58543
4.77521
4.87981
4.98797
5.16312
5.41904
5.74411
6.12891
6.06408
6.39909
6.6652
6.82741
6.89075
6.84761
6.7233
6.55006
6.34524
6.121
5.88532
5.64117
5.3833
5.10728
4.80771
4.47963
4.12686
3.77491
3.49509
3.41037
3.61838
4.03492
4.40436
4.61246
4.7361
4.85599
5.03066
5.27485
5.57978
5.93064
5.84991
6.18752
6.46221
6.63646
6.71388
6.69402
6.59818
6.45693
6.28624
6.09539
5.8932
5.67549
5.44394
5.19366
4.91805
4.61027
4.26859
3.9127
3.60409
3.45518
3.56861
3.90493
4.24632
4.46855
4.60591
4.73585
4.90961
5.14221
5.42635
5.74501
5.65266
5.98984
6.26743
6.45476
6.5441
6.54777
6.48261
6.377
6.24571
6.09767
5.93384
5.75619
5.56244
5.34883
5.10671
4.82621
4.49925
4.13943
3.79919
3.58375
3.60455
3.84811
4.14464
4.36624
4.50665
4.6409
4.81099
5.02992
5.29084
5.57726
5.49238
5.82484
6.10067
6.29988
6.40469
6.43594
6.41303
6.35839
6.28319
6.19559
6.09679
5.98603
5.85769
5.70327
5.51299
5.26914
4.95746
4.58638
4.20345
3.90909
3.82629
3.9652
4.19595
4.38069
4.5011
4.62143
4.77481
4.9689
5.19788
5.44641
5.4635
5.7913
6.07336
6.29849
6.45218
6.54512
6.60505
6.64691
6.67764
6.70647
6.73291
6.74946
6.74018
6.68356
6.56303
6.35647
6.04154
5.63403
5.17887
4.77684
4.56333
4.57787
4.695
4.77686
4.82806
4.89074
4.98561
5.1166
5.27946
5.46365
6.44032
6.79438
7.13691
7.45853
7.75692
8.02081
8.28039
8.52513
8.75842
9.01678
9.27952
9.52005
9.69442
9.75834
9.68756
9.47112
9.09077
8.58536
8.01131
7.47163
7.11263
6.98406
6.91929
6.81464
6.70985
6.62021
6.55526
6.51535
6.50715
6.53706
15.3591
15.7173
16.0889
16.4661
16.8024
17.1706
17.5306
17.7854
17.9887
18.3835
18.7746
19.088
19.2346
19.1577
18.8718
18.4619
17.9216
17.3381
16.7935
16.3844
16.1862
16.2251
16.3055
16.3341
16.3158
16.2461
16.1343
15.9763
15.7838
15.586
12.6174
14.986
15.8167
15.8729
15.362
14.4559
13.2849
11.968
10.585
9.2403
7.9907
6.92944
5.971
5.19255
4.45966
3.98136
4.12036
6.61731
9.41768
11.3174
12.0896
11.9759
11.1345
10.0245
8.86275
7.71997
6.79809
5.89523
5.5758
5.48135
8.43151
8.94317
9.21712
9.24265
9.00643
8.5494
7.92288
7.18554
6.39561
5.61468
4.91141
4.31469
3.80552
3.47036
3.24722
3.26391
3.67777
5.5389
7.53456
8.82347
9.34935
9.37726
9.01878
8.39139
7.66353
6.90011
6.23553
5.54376
5.21767
5.11591
8.11198
8.13742
8.08838
7.98462
7.78018
7.44886
6.99126
6.43261
5.81041
5.17725
4.61478
4.14122
3.72671
3.47456
3.34409
3.44535
3.85647
5.51144
7.36749
8.59917
9.13557
9.25392
9.04583
8.59649
8.00473
7.34015
6.73432
6.07665
5.73694
5.64037
8.14463
7.89217
7.66801
7.48364
7.28646
7.02057
6.65774
6.19993
5.66775
5.13279
4.65653
4.24699
3.87653
3.6547
3.55163
3.65869
4.00811
5.50115
7.28464
8.50464
9.07303
9.26377
9.16102
8.82418
8.32678
7.7335
7.17285
6.55506
6.20763
6.13244
8.1784
7.7433
7.41233
7.18025
6.9901
6.76873
6.47091
6.08486
5.6314
5.16479
4.74932
4.3911
4.05118
3.84211
3.74147
3.8224
4.08781
5.39094
7.08351
8.32823
8.94527
9.19689
9.15648
8.91359
8.5239
8.0018
7.48858
6.91382
6.56599
6.50802
8.16608
7.60735
7.20209
6.94302
6.76123
6.57306
6.32351
5.99585
5.60586
5.19594
4.8335
4.51694
4.20194
3.9986
3.88886
3.92924
4.11345
5.2264
6.79749
8.05947
8.7289
9.03331
9.04927
8.86509
8.53773
8.11285
7.66884
7.15735
6.8047
6.75644
8.07203
7.44657
7.00139
6.73157
6.56003
6.39811
6.18597
5.90391
5.56867
5.21092
4.893
4.61166
4.31811
4.11632
3.99152
3.98676
4.10026
5.03685
6.45925
7.7141
8.43785
8.78497
8.84651
8.71896
8.44969
8.08125
7.69023
7.26762
6.93971
6.89081
7.91055
7.25698
6.7996
6.53176
6.37235
6.23213
6.0498
5.80528
5.51596
5.20954
4.92743
4.67377
4.39883
4.19602
4.05423
4.0075
4.08013
4.86672
6.12059
7.32983
8.0948
8.47307
8.56645
8.48668
8.27579
7.96503
7.61796
7.25112
6.95459
6.89308
7.69621
7.0433
6.59455
6.33841
6.1928
6.07117
5.91321
5.70033
5.44748
5.18676
4.9395
4.70485
4.44622
4.24138
4.08394
4.00661
4.05603
4.71991
5.82737
6.95103
7.72409
8.12998
8.24567
8.18851
8.02722
7.77486
7.4771
7.16051
6.89546
6.81718
7.44545
6.81444
6.38794
6.15007
6.01951
5.9143
5.77665
5.5903
5.36952
5.14457
4.93178
4.7142
4.4647
4.25775
4.0888
4.00439
4.03133
4.59339
5.5747
6.61092
7.36436
7.77322
7.89577
7.85799
7.72352
7.52147
7.27283
7.01119
6.77364
6.68112
7.169
6.57799
6.18247
5.96717
5.85237
5.76183
5.64133
5.47741
5.28443
5.08806
4.9001
4.70109
4.46424
4.25284
4.07737
3.99908
4.00919
4.48676
5.35899
6.30849
7.03704
7.42751
7.53764
7.50765
7.39116
7.22232
7.01745
6.80506
6.59807
6.502
6.87642
6.33883
5.98063
5.79068
5.69204
5.61469
5.50866
5.36382
5.19418
5.0219
4.85252
4.66605
4.43981
4.2304
4.05973
3.99203
3.99258
4.40034
5.17588
6.0412
6.7409
7.11011
7.19938
7.15699
7.05003
6.89958
6.72711
6.55867
6.38281
6.29018
6.57397
6.09754
5.78399
5.62153
5.53922
5.47379
5.38024
5.25167
5.10158
4.94888
4.79399
4.61794
4.40228
4.19943
4.04863
3.98807
3.98509
4.33475
5.01899
5.80665
6.47709
6.82504
6.88899
6.82831
6.71419
6.57561
6.42431
6.28798
6.14125
6.05465
6.26972
5.86135
5.59423
5.46025
5.3944
5.3399
5.25757
5.14333
5.00976
4.87256
4.72933
4.56242
4.35869
4.16904
4.04542
3.99297
3.99224
4.28908
4.88617
5.60645
6.24694
6.57463
6.61164
6.52853
6.40031
6.262
6.12303
6.00593
5.88505
5.80715
5.97461
5.63375
5.41318
5.30771
5.25843
5.21443
5.14268
5.04156
4.92242
4.79775
4.66416
4.50641
4.31767
4.15125
4.05455
4.01193
4.01404
4.26771
4.77861
5.43994
6.05052
6.35967
6.37079
6.26285
6.11568
5.97063
5.83412
5.72624
5.62399
5.55675
5.6941
5.41828
5.24339
5.16603
5.1333
5.09976
5.03865
4.95009
4.84422
4.73034
4.60585
4.45884
4.2898
4.15508
4.0823
4.05026
4.05595
4.27632
4.69934
5.30555
5.8869
6.17988
6.16836
6.03457
5.86559
5.70834
5.56967
5.45951
5.36778
5.31126
5.43455
5.21938
5.08844
5.03855
5.02221
4.99955
4.95002
4.87425
4.78146
4.67875
4.56384
4.43147
4.29315
4.18588
4.13545
4.11395
4.12287
4.30518
4.65453
5.2011
5.75455
6.0347
6.00434
5.84545
5.65344
5.48065
5.33553
5.22137
5.12717
5.07774
5.2076
5.04487
4.95415
4.93047
4.93037
4.91991
4.88371
4.82164
4.74353
4.65573
4.55768
4.44241
4.33167
4.25344
4.22269
4.21105
4.22232
4.36292
4.65883
5.13428
5.65257
5.92216
5.8783
5.69638
5.48127
5.29158
5.13741
5.01795
4.91969
4.86499
5.02743
4.90918
4.85155
4.85149
4.86685
4.87122
4.85038
4.80759
4.7487
4.67532
4.5931
4.50045
4.42005
4.36893
4.35646
4.35379
4.36586
4.46417
4.69937
5.11634
5.58256
5.84155
5.79048
5.58844
5.3501
5.14485
4.98013
4.854
4.75218
4.68618
4.89433
4.82028
4.79771
4.81547
4.84713
4.86827
4.86643
4.84421
4.80582
4.75242
4.6899
4.62371
4.57477
4.55046
4.5571
4.56248
4.57184
4.62787
4.7955
5.14703
5.56158
5.79455
5.73974
5.52003
5.26522
5.04486
4.86823
4.73537
4.63095
4.55956
4.81111
4.78124
4.79334
4.83568
4.88893
4.92996
4.95051
4.95038
4.93582
4.90655
4.87011
4.83585
4.82353
4.82985
4.85976
4.8734
4.87422
4.88335
4.97856
5.2355
5.59036
5.79366
5.71893
5.4839
5.21865
4.98997
4.80698
4.66888
4.56215
4.49029
4.78294
4.79826
4.84941
4.92168
5.00339
5.07073
5.11878
5.14823
5.16346
5.16969
5.17198
5.18041
5.21862
5.2672
5.3297
5.35566
5.34089
5.29148
5.29592
5.43969
5.6937
5.85223
5.74934
5.4838
5.21097
4.97752
4.79073
4.65069
4.54536
4.47767
4.81932
4.88353
4.98046
5.09277
5.21302
5.31751
5.40393
5.4766
5.5414
5.61082
5.67584
5.74818
5.86413
5.98098
6.09846
6.1483
6.11229
5.98174
5.85268
5.84144
5.95443
6.02699
5.87376
5.57932
5.29425
5.05348
4.86023
4.71396
4.60624
4.5446
4.94432
5.06397
5.21871
5.38799
5.56371
5.72525
5.87244
6.03474
6.19903
6.37647
6.55666
6.73351
6.98047
7.22662
7.45063
7.55253
7.48777
7.2316
6.89309
6.63348
6.52794
6.43599
6.16735
5.81804
5.50644
5.25001
5.04296
4.88367
4.77327
4.71657
5.21635
5.40526
5.63856
5.89546
6.15969
6.43295
6.70946
7.02134
7.36444
7.74657
8.16534
8.58919
9.07434
9.58897
10.036
10.2513
10.1408
9.66326
8.95952
8.27208
7.77618
7.36414
6.85161
6.37475
5.9902
5.68589
5.43892
5.24844
5.11805
5.05561
5.78781
6.07629
6.43506
6.85409
7.30375
7.78245
8.32053
8.94221
9.64849
10.4515
11.3585
12.3434
13.3487
14.4106
15.3069
15.725
15.4899
14.5807
13.2098
11.7538
10.5512
9.52493
8.52231
7.73976
7.15041
6.69645
6.32838
6.03998
5.83548
5.72965
7.16509
7.64469
8.25987
8.97927
9.82478
10.7618
11.8722
13.1597
14.6273
16.2998
18.194
20.2616
22.3902
24.3189
25.8693
26.3955
25.7307
23.9987
21.5344
18.8759
16.5668
14.5596
12.741
11.3127
10.2084
9.32487
8.59183
7.99862
7.55553
7.28688
11.0927
11.9506
13.1213
14.5079
16.2189
18.1372
20.4115
22.9801
25.8254
28.9603
32.3641
35.8717
39.2177
41.7773
43.0553
42.6274
40.6636
37.6937
34.16
30.5488
27.4304
24.8503
22.4605
20.3103
18.3831
16.601
14.9591
13.5183
12.364
11.5775
22.8811
24.5038
26.6629
29.1619
32.1223
35.3569
38.9776
42.7961
46.734
50.5194
53.9489
56.7881
58.4643
58.2693
56.4317
53.1096
49.3617
45.6225
42.2491
39.4503
37.4733
36.7246
36.4512
35.6442
34.4224
32.7521
30.6043
28.159
25.8002
23.9407
44.1152
47.0286
49.8403
52.4399
54.792
56.9073
58.7548
60.3063
61.4624
61.7452
60.974
59.3894
57.1776
54.3834
50.3408
45.9119
42.1922
39.1041
36.7908
35.3604
34.8198
35.4772
36.7665
38.3873
40.0237
41.5592
42.9069
44.0458
44.5212
44.4844
18.9985
22.126
23.1397
23.2015
22.4544
21.1102
19.3449
17.3193
15.1423
12.9662
10.8558
8.9602
7.50627
7.12788
7.51922
10.0883
14.9313
21.884
25.9977
28.1183
28.3018
27.0754
24.8494
22.2102
19.4926
16.8405
14.4827
12.1827
10.5695
9.26756
11.3162
11.5498
11.6824
11.7485
11.5618
11.111
10.4234
9.55817
8.57344
7.5285
6.50928
5.54515
4.95574
5.12029
5.83879
7.74007
10.7545
14.5369
16.626
17.6515
17.7332
17.1729
16.1498
14.8393
13.4076
11.9527
10.626
9.3111
8.40518
7.76802
10.6254
10.23
9.91776
9.72753
9.52901
9.23682
8.80522
8.23153
7.54293
6.78015
6.01477
5.28885
4.89016
5.14642
5.87475
7.527
10.0312
13.0232
14.7353
15.584
15.7171
15.378
14.6859
13.7322
12.6449
11.4993
10.4003
9.26232
8.50531
8.03763
10.4635
9.7493
9.23688
8.92392
8.70934
8.48633
8.17727
7.74856
7.21071
6.59028
5.97731
5.38493
5.0808
5.35603
6.03456
7.46687
9.63031
12.1671
13.7181
14.5175
14.7163
14.5174
14.017
13.2701
12.3677
11.3757
10.4061
9.41617
8.7262
8.31973
10.303
9.4007
8.79184
8.4242
8.21131
8.03411
7.8017
7.46636
7.02972
6.5214
6.01588
5.53059
5.29063
5.55628
6.1592
7.37606
9.24347
11.4338
12.8751
13.6556
13.9152
13.8208
13.4611
12.872
12.1117
11.242
10.3756
9.49736
8.85938
8.48574
10.0418
9.06938
8.41451
8.03192
7.8292
7.68652
7.50754
7.23954
6.88158
6.46693
6.05001
5.65855
5.46894
5.70938
6.2259
7.23529
8.83112
10.725
12.0723
12.8408
13.1485
13.1316
12.8804
12.4202
11.7935
11.0289
10.255
9.45978
8.84792
8.48463
9.71169
8.72195
8.06022
7.68518
7.49872
7.38361
7.24426
7.02818
6.73573
6.39789
6.06527
5.754
5.60459
5.80989
6.23293
7.05344
8.39439
10.0241
11.2842
12.0434
12.3848
12.423
12.2528
11.8968
11.3838
10.7364
10.0372
9.32637
8.7429
8.38607
9.32702
8.36003
7.71802
7.36394
7.19649
7.10395
6.995
6.82087
6.58414
6.31483
6.06141
5.81443
5.69673
5.86168
6.19565
6.84779
7.94271
9.33204
10.5143
11.267
11.6292
11.7026
11.5894
11.3149
10.8974
10.3534
9.74481
9.10778
8.55971
8.20598
8.90865
7.99099
7.38617
7.06074
6.91325
6.83954
6.75459
6.61544
6.42706
6.21945
6.02688
5.84022
5.74754
5.86715
6.12225
6.63645
7.52667
8.70079
9.78304
10.524
10.8985
10.9889
10.9109
10.6963
10.3566
9.9021
9.37859
8.82647
8.31697
7.96084
8.47699
7.62303
7.06541
6.77265
6.6454
6.58785
6.52231
6.41285
6.26665
6.1124
5.97342
5.8403
5.76144
5.84065
6.02628
6.43812
7.15922
8.14334
9.12751
9.84093
10.2092
10.3015
10.2405
10.0656
9.78488
9.40465
8.95714
8.48345
8.0198
7.67149
8.04449
7.26206
6.75708
6.49903
6.39194
6.34857
6.29916
6.21517
6.1056
5.99671
5.90337
5.8107
5.74361
5.78775
5.92316
6.25375
6.83314
7.65543
8.54451
9.22562
9.58201
9.6604
9.59937
9.44506
9.20563
8.88473
8.503
8.09835
7.68386
7.35625
7.61901
6.91095
6.4629
6.24031
6.15307
6.12236
6.08682
6.02488
5.94683
5.8757
5.8199
5.75979
5.70091
5.71959
5.83265
6.08698
6.54974
7.23578
8.03243
8.67928
9.02047
9.07959
9.00583
8.85282
8.6385
8.36273
8.03605
7.69033
7.32332
7.02179
7.20243
6.57608
6.18485
5.9974
5.92956
5.91044
5.88734
5.84481
5.79374
5.75365
5.72812
5.69353
5.64312
5.64981
5.74966
5.94322
6.31088
6.88243
7.59028
8.20255
8.52764
8.56528
8.47119
8.30678
8.09879
7.85444
7.57173
7.27443
6.95168
6.67848
6.80575
6.26029
5.92471
5.77166
5.72291
5.71472
5.70337
5.67843
5.65075
5.63619
5.63473
5.62066
5.5832
5.59804
5.68287
5.82833
6.11913
6.5935
7.2172
7.79544
8.10537
8.1217
8.00212
7.81675
7.60278
7.37283
7.12201
6.86312
6.58072
6.33654
6.43298
5.96623
5.68494
5.56558
5.53597
5.53834
5.5387
5.53044
5.52384
5.5307
5.54888
5.55335
5.53765
5.56855
5.64105
5.74888
5.97755
6.36844
6.91387
7.45703
7.75419
7.75125
7.60306
7.39032
7.16056
6.93242
6.69861
6.46814
6.22076
6.00496
6.08837
5.69735
5.4689
5.3828
5.3726
5.38576
5.39875
5.40728
5.4204
5.44673
5.48396
5.50913
5.52707
5.56798
5.63427
5.71302
5.89097
6.20893
6.68276
7.18587
7.4742
7.4547
7.27679
7.0327
6.78009
6.54319
6.31545
6.10148
5.88158
5.69211
5.77781
5.45873
5.28156
5.22871
5.23722
5.26301
5.29124
5.31775
5.35131
5.39885
5.45879
5.51095
5.55728
5.61051
5.67554
5.73209
5.86763
6.1188
6.52609
6.98453
7.26522
7.23256
7.02488
6.74704
6.46742
6.21398
5.98315
5.77603
5.57443
5.40625
5.51035
5.25876
5.13092
5.11078
5.13767
5.17948
5.22765
5.27483
5.33299
5.40471
5.49226
5.57112
5.64498
5.71342
5.78306
5.82309
5.92181
6.11689
6.45181
6.85929
7.12766
7.08654
6.84881
6.53678
6.22751
5.95184
5.71036
5.50173
5.31112
5.15776
5.29308
5.10502
5.02554
5.03666
5.08562
5.14645
5.2159
5.29321
5.38008
5.48208
5.59972
5.70957
5.81503
5.90419
5.98499
6.0131
6.07788
6.21095
6.48372
6.83229
7.06887
7.02235
6.75224
6.40739
6.06515
5.76269
5.50546
5.289
5.10219
4.95959
5.13347
5.00646
4.97309
5.01238
5.08662
5.18052
5.28034
5.38941
5.51274
5.6539
5.81118
5.96058
6.10594
6.2254
6.32802
6.34806
6.37823
6.44567
6.63474
6.90661
7.10628
7.02661
6.71468
6.3435
5.97613
5.65307
5.37754
5.14849
4.95782
4.82059
5.04028
4.97598
4.98482
5.06084
5.17254
5.30081
5.43996
5.59172
5.76506
5.96071
6.17442
6.37965
6.58114
6.74835
6.89081
6.91041
6.90301
6.88668
6.9678
7.13485
7.27352
7.15941
6.78096
6.3471
5.95048
5.60848
5.31943
5.08181
4.88834
4.75061
5.03817
5.02536
5.08375
5.20457
5.36372
5.54029
5.73403
5.94775
6.19429
6.47101
6.77075
7.06228
7.35107
7.59857
7.81309
7.84997
7.80168
7.66773
7.59455
7.60745
7.63698
7.44742
7.00099
6.51255
6.06385
5.67676
5.35473
5.09549
4.89292
4.75567
5.14109
5.18436
5.30463
5.48442
5.70957
5.95785
6.23337
6.54328
6.90389
7.30883
7.74756
8.18212
8.61823
9.00825
9.35595
9.44526
9.35415
9.05648
8.74287
8.5061
8.33783
7.99459
7.43685
6.86688
6.35498
5.91822
5.55536
5.2638
5.03828
4.89002
5.4029
5.51337
5.71496
5.98054
6.3051
6.66765
7.07583
7.54479
8.09326
8.71122
9.38602
10.0711
10.7693
11.4206
12.0179
12.2261
12.0982
11.5632
10.8719
10.2082
9.68077
9.03963
8.27374
7.55792
6.93493
6.41329
5.98191
5.63577
5.37091
5.20241
5.93866
6.14051
6.4622
6.86453
7.35273
7.91092
8.54987
9.29535
10.1683
11.1549
12.2432
13.3773
14.5502
15.6771
16.7217
17.1501
16.9999
16.1073
14.7892
13.4424
12.2917
11.0937
9.93331
8.94036
8.097
7.40379
6.83416
6.37845
6.03203
5.81541
7.03968
7.38283
7.90266
8.54159
9.32305
10.2355
11.2947
12.5394
13.9857
15.6165
17.4196
19.3254
21.3061
23.2064
24.9033
25.5523
24.8625
23.1851
21.0213
18.8317
16.9767
15.1655
13.3415
11.8317
10.5489
9.49087
8.61583
7.91516
7.37924
7.03971
9.51894
10.1026
10.9768
12.0449
13.3684
14.9331
16.7535
18.8715
21.2772
23.9385
26.8315
29.8442
32.8904
35.5949
37.2765
36.8646
35.0422
32.3426
29.3289
26.4385
24.0718
22.0529
20.1047
17.9338
15.9082
14.1636
12.6378
11.3866
10.3964
9.73641
15.6927
16.6749
18.1506
19.9442
22.1734
24.7814
27.7627
31.1062
34.7341
38.5579
42.4805
46.2725
49.5771
51.0218
50.6475
48.131
44.7227
40.998
37.4788
34.4772
32.2969
30.9807
29.855
28.4933
26.6507
24.3055
21.8657
19.6681
17.7411
16.3231
30.4881
31.9816
34.1048
36.6183
39.6608
43.0889
46.8467
50.7856
54.7226
58.423
61.4525
63.3648
63.2847
61.4755
58.0231
52.958
48.1196
43.8512
40.5132
38.2009
37.0507
37.26
37.9576
38.6458
39.0686
39.0321
38.1307
36.2428
33.8726
31.6581
49.3418
52.1942
54.755
56.9651
59.2323
61.474
63.6585
65.6498
67.1347
67.6034
66.6491
64.403
61.0004
56.5684
51.1112
45.0396
40.0852
36.2749
33.6497
32.2288
31.9616
33.0439
34.8489
37.147
39.6623
42.2194
44.6854
46.9158
48.5923
49.7513
25.3808
29.5823
30.42
30.4002
29.4494
27.744
25.4787
22.8407
19.9455
16.9235
13.8241
10.8878
9.499
11.5967
16.5713
24.2708
32.8107
43.6357
49.3169
51.1569
49.7718
46.4871
42.1563
37.4674
32.7647
28.2032
24.0121
19.842
16.4756
13.4361
14.0881
14.336
14.2227
14.2592
14.0973
13.6493
12.9151
11.9465
10.8018
9.51703
8.14039
6.72592
6.45956
8.16013
11.2516
15.46
19.9503
24.9374
27.2713
27.8957
27.1809
25.7109
23.8223
21.7016
19.5096
17.3181
15.2817
13.2699
11.8189
10.5331
12.9291
12.2906
11.7396
11.4632
11.2632
11.0051
10.6012
10.0188
9.27296
8.38112
7.39313
6.35985
6.35571
7.89615
10.3842
13.6945
17.2134
20.9128
22.6701
23.1316
22.6542
21.6459
20.3349
18.8215
17.2096
15.5434
13.9813
12.4237
11.3222
10.4144
12.4975
11.4782
10.7419
10.3349
10.1129
9.93308
9.67623
9.27198
8.71424
8.0148
7.22323
6.43675
6.56819
7.96051
10.0775
12.8297
15.7601
18.7663
20.2963
20.7371
20.4263
19.6828
18.6853
17.4973
16.1925
14.7997
13.4596
12.111
11.137
10.3509
12.1185
10.8915
10.0827
9.63361
9.41704
9.287
9.11488
8.81689
8.37902
7.81416
7.18954
6.59443
6.81627
8.07707
9.87795
12.1737
14.6334
17.1378
18.5216
18.97
18.7869
18.2343
17.4581
16.5033
15.4228
14.2338
13.0435
11.8488
10.9433
10.2366
11.6463
10.3555
9.53521
9.0899
8.89346
8.80051
8.68351
8.45738
8.10861
7.65686
7.1815
6.75515
7.04103
8.172
9.69031
11.5847
13.6347
15.7319
16.9914
17.4477
17.3594
16.9508
16.3423
15.5706
14.673
13.6579
12.6062
11.5376
10.681
10.0504
11.0908
9.83342
9.04149
8.6244
8.45347
8.38948
8.31096
8.13858
7.86396
7.51556
7.17505
6.9001
7.22953
8.22472
9.49194
11.0294
12.7184
14.4696
15.6095
16.0657
16.0431
15.7411
15.2603
14.6344
13.8893
13.0271
12.1129
11.1594
10.349
9.75444
10.5081
9.32538
8.58613
8.20885
8.06401
8.02272
7.97246
7.84416
7.63591
7.38388
7.16435
7.02382
7.37981
8.23155
9.28079
10.505
11.8788
13.334
14.356
14.8012
14.8176
14.5883
14.2017
13.6908
13.0729
12.3447
11.5539
10.7241
9.96623
9.38964
9.92226
8.8379
8.16377
7.8303
7.71083
7.68779
7.65963
7.57004
7.4231
7.2596
7.14553
7.12464
7.49385
8.2141
9.06242
10.018
11.1214
12.3204
13.2275
13.6531
13.6879
13.5026
13.1807
12.7556
12.2395
11.6262
10.9475
10.2311
9.53751
8.98864
9.36065
8.37453
7.77093
7.48201
7.38736
7.37977
7.37006
7.31591
7.22605
7.14308
7.1227
7.20436
7.57449
8.1773
8.84516
9.57881
10.4566
11.4326
12.2296
12.6289
12.6659
12.5003
12.2175
11.8526
11.4146
10.8965
10.3168
9.70303
9.0804
8.57184
8.82522
7.93681
7.40546
7.16079
7.09098
7.09684
7.10352
7.08271
7.04587
7.03556
7.09618
7.26247
7.62512
8.1188
8.64041
9.19194
9.87452
10.6568
11.3502
11.722
11.7562
11.597
11.3303
11.0027
10.6218
10.18
9.685
9.16101
8.61016
8.15236
8.31857
7.52847
7.0671
6.86562
6.82051
6.83864
6.8614
6.87188
6.88393
6.93512
7.06766
7.30157
7.64109
8.04786
8.45622
8.85523
9.37078
9.98527
10.5832
10.9272
10.9566
10.7962
10.5334
10.2215
9.87779
9.49476
9.06973
8.62172
8.13975
7.73468
7.84046
7.15017
6.75615
6.5967
6.57557
6.60576
6.64536
6.68507
6.74031
6.84359
7.03866
7.3176
7.63815
7.97898
8.29629
8.56906
8.94327
9.41415
9.9247
10.2422
10.2659
10.0997
9.8311
9.52109
9.1949
8.85312
8.48324
8.09794
7.68031
7.3275
7.39707
6.80265
6.47346
6.35529
6.35669
6.39949
6.45672
6.52415
6.61786
6.76702
7.01307
7.31982
7.63182
7.9274
8.167
8.33637
8.5927
8.94137
9.3724
9.66528
9.68361
9.50831
9.22677
8.90753
8.58484
8.26542
7.93541
7.60054
7.24085
6.93767
6.98861
6.48654
6.22042
6.14368
6.1647
6.22194
6.29801
6.39252
6.52102
6.71495
6.99645
7.3238
7.63772
7.89943
8.07729
8.16337
8.32268
8.56742
8.92572
9.19518
9.20905
9.02224
8.72233
8.38567
8.05522
7.74352
7.4368
7.13949
6.82928
6.57131
6.61743
6.20394
5.99956
5.96332
6.00303
6.07688
6.17365
6.29582
6.46017
6.68714
6.99603
7.3604
7.67951
7.90587
8.04015
8.06079
8.14101
8.29671
8.5866
8.8319
8.84242
8.64171
8.31922
7.95985
7.61228
7.29553
6.99901
6.72501
6.45421
6.23517
6.2888
5.95957
5.81586
5.81761
5.87699
5.97087
6.09108
6.2453
6.4368
6.70006
7.06077
7.44554
7.76735
7.97259
8.07518
8.04583
8.06168
8.13989
8.36158
8.57858
8.58633
8.36815
8.02017
7.63265
7.2607
6.929
6.63103
6.36784
6.12374
5.93617
6.01173
5.76219
5.67872
5.71228
5.79557
5.91502
6.05784
6.23765
6.47977
6.79257
7.18967
7.5958
7.92689
8.12348
8.21064
8.14535
8.10749
8.11684
8.26794
8.44443
8.44924
8.20664
7.82888
7.4068
7.00436
6.65061
6.34097
6.07751
5.8495
5.68336
5.79347
5.61959
5.5916
5.65519
5.76213
5.90494
6.09199
6.32286
6.61187
6.97137
7.40987
7.84422
8.1957
8.39859
8.48968
8.40315
8.31695
8.25782
8.33622
8.45572
8.43835
8.14939
7.73813
7.28231
6.85064
6.46744
6.1365
5.86342
5.64083
5.48812
5.64286
5.54112
5.55755
5.65027
5.80189
5.99246
6.22637
6.50808
6.85374
7.27162
7.76301
8.23898
8.62832
8.86027
8.98224
8.88936
8.75932
8.62216
8.60868
8.65048
8.59709
8.24323
7.73454
7.23751
6.77704
6.37097
6.02151
5.73609
5.5074
5.35866
5.57184
5.53923
5.60312
5.74548
5.94506
6.18762
6.48159
6.83004
7.25121
7.74822
8.31482
8.8574
9.31376
9.60875
9.80119
9.72044
9.55159
9.31862
9.16576
9.08893
8.95821
8.53406
7.94663
7.3624
6.8197
6.35742
5.98354
5.68397
5.45136
5.30492
5.60616
5.63235
5.75733
5.95954
6.22166
6.53538
6.91155
7.35282
7.8805
8.49162
9.17239
9.82478
10.3965
10.8083
11.1334
11.0935
10.8988
10.5069
10.1486
9.88272
9.61793
9.08029
8.38438
7.70606
7.08714
6.55327
6.11619
5.76922
5.51187
5.35582
5.78045
5.87081
6.07
6.3506
6.6995
7.11529
7.61046
8.18786
8.87292
9.65646
10.5166
11.3511
12.1184
12.735
13.2913
13.3443
13.0749
12.4378
11.7754
11.2216
10.7423
10.027
9.17973
8.34694
7.61286
6.97998
6.45959
6.04814
5.74337
5.56408
6.17042
6.33767
6.6361
7.02764
7.50443
8.0744
8.75066
9.53657
10.4631
11.5144
12.6608
13.7959
14.8889
15.8499
16.782
16.9471
16.441
15.4305
14.3405
13.378
12.5881
11.6275
10.5824
9.51214
8.57879
7.7857
7.12963
6.61225
6.22998
6.00635
6.9371
7.20793
7.65045
8.20946
8.88516
9.69895
10.6608
11.7754
13.0805
14.5509
16.1494
17.7655
19.3768
20.8739
22.3397
22.2779
21.2923
19.7261
18.0888
16.6301
15.4673
14.2523
12.9935
11.6772
10.3789
9.29715
8.40137
7.69113
7.16473
6.85095
8.45547
8.87652
9.54028
10.3632
11.3587
12.5667
13.9827
15.6154
17.5032
19.6078
21.8769
24.1942
26.525
28.6888
30.2666
29.3454
27.4566
25.1135
22.8814
20.9706
19.5249
18.2469
16.9232
15.4517
13.8269
12.2261
10.8906
9.81316
8.99726
8.49011
11.64
12.2787
13.2816
14.5131
16.007
17.8278
19.9238
22.3113
25.0067
27.9414
31.0307
34.1289
37.105
39.2182
39.756
37.0192
33.8149
30.5765
27.8533
25.7285
24.3022
23.4087
22.5207
21.3532
19.8368
17.954
15.9052
14.1874
12.8033
11.8767
18.6208
19.523
20.9566
22.7062
24.8363
27.4163
30.3037
33.511
36.9851
40.5923
44.1602
47.4274
49.77
49.8481
48.1575
42.8083
38.1504
34.146
31.2356
29.2784
28.2869
28.2803
28.4662
28.5012
28.0829
27.0622
25.3834
23.0553
20.8748
19.2039
32.4461
33.606
35.2903
37.2863
39.7137
42.5966
45.733
49.069
52.4398
55.5882
58.1285
59.394
58.5728
55.7023
51.0365
43.372
37.7267
33.3919
30.6515
29.1751
28.8595
29.822
31.3202
33.0204
34.6041
35.826
36.4537
36.2961
35.093
33.3763
45.8796
48.5428
50.8455
52.6846
54.511
56.4748
58.4955
60.4577
62.0842
62.9074
62.4077
60.2524
56.4594
51.2591
44.8183
36.6438
30.9873
27.1007
24.7971
23.7649
23.822
25.0411
26.9505
29.4162
32.2346
35.2418
38.2832
41.1671
43.7168
45.9655
32.1875
37.5645
38.2932
38.0248
36.8209
34.7301
31.9485
28.679
25.0352
21.1161
16.9061
12.6901
12.5573
19.932
30.0234
43.3364
56.9283
73.0617
80.5532
80.8977
76.2984
69.6985
62.3735
54.9344
47.7253
40.8856
34.5809
28.3043
22.962
17.9331
16.9674
17.3008
17.0486
16.9732
16.8035
16.3328
15.5377
14.4501
13.1246
11.5723
9.82004
7.90884
8.59444
12.7588
17.9596
24.2527
30.7202
37.4335
40.1188
39.8992
37.7995
34.9782
31.9092
28.7357
25.6392
22.6513
19.9227
17.2599
15.3135
13.375
15.2086
14.4351
13.7253
13.3686
13.1537
12.9055
12.5044
11.8866
11.0535
10.0005
8.77807
7.43908
8.3095
11.6018
15.6252
20.3338
25.2238
30.0656
31.8957
31.6929
30.2342
28.2471
26.0872
23.8461
21.622
19.4243
17.3917
15.4007
14.0397
12.7663
14.4895
13.237
12.3499
11.8775