/*--------------------------------*- C++ -*----------------------------------*\
| =========                 |                                                 |
| \\      /  F ield         | OpenFOAM: The Open Source CFD Toolbox           |
|  \\    /   O peration     | Version:  5.0                                   |
|   \\  /    A nd           | Web:      www.OpenFOAM.org                      |
|    \\/     M anipulation  |                                                 |
\*---------------------------------------------------------------------------*/
FoamFile
{
    version     2.0;
    format      ascii;
    class       volScalarField;
    location    "500/air";
    object      k;
}
// * * * * * * * * * * * * * * * * * * * * * * * * * * * * * * * * * * * * * //

dimensions      [0 2 -2 0 0 0 0];

internalField   nonuniform List<scalar> 
243000
(
0.117481
0.123821
0.123499
0.120553
0.115689
0.109621
0.102855
0.0958241
0.0888071
0.0821643
0.0761286
0.071155
0.0668009
0.0626828
0.0583309
0.053592
0.0481142
0.0429968
0.0389951
0.0396738
0.0458041
0.0503679
0.0518063
0.0532804
0.054841
0.0562738
0.0580157
0.0603199
0.0647985
0.0725734
0.198726
0.2057
0.199749
0.190505
0.179577
0.167908
0.156053
0.144411
0.133203
0.122837
0.113513
0.105694
0.0989866
0.0934595
0.0880446
0.082203
0.07494
0.0690965
0.0671109
0.0766265
0.0956971
0.107152
0.107286
0.107449
0.108781
0.110539
0.113094
0.115902
0.121943
0.133363
0.243152
0.248935
0.241459
0.230124
0.216797
0.202619
0.188226
0.174111
0.160583
0.148187
0.137228
0.12823
0.120415
0.11381
0.107184
0.099936
0.0908193
0.0837987
0.0833062
0.0996581
0.127966
0.144552
0.144421
0.142632
0.143466
0.145311
0.148258
0.151443
0.158116
0.170392
0.274464
0.278486
0.270691
0.258793
0.244645
0.229421
0.213762
0.198234
0.18327
0.169574
0.157619
0.147987
0.139444
0.131878
0.124007
0.115186
0.104115
0.0955549
0.0960731
0.117768
0.153766
0.17521
0.176096
0.172479
0.172516
0.174349
0.177599
0.181146
0.188215
0.200893
0.296242
0.2991
0.291522
0.279815
0.265708
0.250291
0.234159
0.217925
0.202149
0.187702
0.17521
0.165266
0.156221
0.147797
0.138709
0.128253
0.115255
0.105515
0.107124
0.131295
0.173295
0.199266
0.20207
0.197406
0.196404
0.198223
0.201797
0.205786
0.213192
0.226109
0.311458
0.313544
0.306423
0.295305
0.281715
0.266605
0.250495
0.234025
0.217879
0.203081
0.190365
0.1803
0.170888
0.161695
0.151441
0.139361
0.124528
0.114371
0.116623
0.14105
0.187049
0.217082
0.222304
0.217548
0.215648
0.217532
0.221494
0.226008
0.233662
0.246734
0.321931
0.323486
0.31695
0.306643
0.293847
0.279343
0.263565
0.247177
0.230974
0.216105
0.20338
0.193295
0.18359
0.173708
0.162341
0.148708
0.132307
0.122119
0.124741
0.149164
0.195394
0.229203
0.237058
0.232985
0.230543
0.232717
0.237259
0.242378
0.250181
0.263405
0.328679
0.329948
0.324105
0.314756
0.302923
0.28921
0.273966
0.257875
0.241835
0.227089
0.214491
0.204428
0.194471
0.183962
0.171554
0.156487
0.139279
0.12901
0.13177
0.155896
0.20006
0.236199
0.246793
0.243925
0.241393
0.244046
0.24943
0.255345
0.26332
0.276782
0.332435
0.333652
0.328551
0.320261
0.309513
0.296711
0.282138
0.266497
0.250775
0.236282
0.223884
0.213854
0.203665
0.192582
0.179219
0.162884
0.145551
0.135177
0.137916
0.161559
0.203303
0.239203
0.252118
0.250714
0.248467
0.251776
0.258235
0.265182
0.27344
0.28726
0.333847
0.335189
0.330893
0.323672
0.314006
0.302181
0.288395
0.273323
0.25803
0.243879
0.231714
0.221704
0.211307
0.199684
0.185478
0.168095
0.151047
0.140675
0.143273
0.166234
0.205805
0.239545
0.253698
0.253811
0.2521
0.256125
0.263805
0.272041
0.280709
0.294986
0.333297
0.335055
0.33163
0.325445
0.316842
0.305964
0.292946
0.278536
0.263771
0.250028
0.238109
0.228107
0.217502
0.2054
0.190481
0.17233
0.155841
0.14556
0.147874
0.169935
0.207499
0.23924
0.252624
0.253696
0.252746
0.257456
0.266333
0.275981
0.285383
0.300352
0.331173
0.333437
0.331053
0.325902
0.318291
0.308335
0.296093
0.282323
0.268132
0.254841
0.243178
0.233177
0.222366
0.209861
0.194376
0.175998
0.1601
0.149912
0.151773
0.172707
0.208389
0.238357
0.251278
0.252327
0.251115
0.256402
0.266547
0.27746
0.287753
0.303446
0.327622
0.330503
0.329187
0.3252
0.318594
0.309482
0.297998
0.284885
0.271242
0.258429
0.24703
0.237013
0.226022
0.213202
0.197306
0.179409
0.163954
0.153801
0.155034
0.174632
0.208495
0.236909
0.249501
0.250712
0.249505
0.253429
0.264511
0.276848
0.288162
0.3045
0.322703
0.326371
0.326216
0.323386
0.317831
0.309599
0.298809
0.286351
0.273272
0.260876
0.249748
0.239722
0.228595
0.215549
0.199408
0.1824
0.167428
0.157274
0.157732
0.175822
0.207775
0.234887
0.247256
0.248748
0.24769
0.250681
0.260631
0.274185
0.286687
0.303772
0.316526
0.321179
0.322224
0.320561
0.316035
0.308682
0.298676
0.286856
0.274325
0.262352
0.251427
0.241382
0.230176
0.217012
0.200921
0.185004
0.170566
0.160381
0.159962
0.176395
0.20633
0.232285
0.24452
0.246371
0.245554
0.247938
0.25666
0.26982
0.283493
0.30131
0.309259
0.315026
0.317288
0.3168
0.31325
0.306759
0.297536
0.286457
0.274534
0.262964
0.252248
0.242198
0.230945
0.217735
0.202414
0.187372
0.173436
0.163182
0.161815
0.176419
0.204233
0.229108
0.24129
0.24355
0.243044
0.24508
0.252806
0.264444
0.278815
0.297303
0.30107
0.307996
0.311479
0.312136
0.309546
0.30384
0.295435
0.285122
0.273877
0.26281
0.252354
0.24234
0.23109
0.217968
0.203789
0.189568
0.176104
0.165746
0.163371
0.175936
0.201559
0.225377
0.237574
0.240282
0.240146
0.242043
0.248974
0.259513
0.272971
0.291935
0.292443
0.300245
0.304876
0.306596
0.304956
0.300042
0.292379
0.282887
0.272362
0.26183
0.251682
0.241765
0.230604
0.218226
0.20511
0.191657
0.178634
0.168144
0.164709
0.17509
0.198398
0.221119
0.233391
0.236581
0.236872
0.238798
0.245116
0.254838
0.267288
0.285379
0.284555
0.292567
0.297743
0.300312
0.299577
0.295449
0.288537
0.27981
0.270041
0.260083
0.250288
0.240567
0.230051
0.218665
0.206459
0.193708
0.181088
0.170446
0.165927
0.174003
0.194843
0.216428
0.228774
0.232472
0.233252
0.235332
0.241209
0.250306
0.261935
0.277927
0.277221
0.285454
0.291115
0.294059
0.293852
0.290346
0.284209
0.27634
0.267439
0.258185
0.24893
0.239682
0.229899
0.219305
0.207895
0.195784
0.183533
0.172731
0.167137
0.172819
0.190987
0.211364
0.223766
0.228
0.229328
0.231655
0.237237
0.245838
0.256787
0.270973
0.270301
0.278771
0.284872
0.288176
0.288478
0.285573
0.280174
0.273137
0.265084
0.256568
0.247913
0.239191
0.230072
0.220179
0.20947
0.197945
0.186034
0.175072
0.168433
0.171705
0.187011
0.20601
0.218438
0.223234
0.225171
0.227807
0.233206
0.241393
0.251765
0.264564
0.26368
0.272429
0.2789
0.282554
0.283355
0.281052
0.276366
0.27014
0.262925
0.255177
0.247176
0.239052
0.230535
0.221289
0.211225
0.200252
0.188664
0.177559
0.169925
0.170841
0.183167
0.200504
0.21288
0.218267
0.22087
0.223855
0.229165
0.237003
0.24685
0.258535
0.257269
0.266299
0.273114
0.277135
0.278415
0.276715
0.272735
0.267307
0.260931
0.253984
0.246689
0.239205
0.231273
0.222664
0.213222
0.202791
0.191531
0.180319
0.171751
0.170425
0.179698
0.195062
0.207228
0.213218
0.216515
0.219868
0.225162
0.232692
0.242029
0.252783
0.251046
0.260278
0.267506
0.271881
0.273607
0.272509
0.269239
0.264624
0.259107
0.252997
0.246493
0.239673
0.232365
0.224413
0.215618
0.205766
0.194874
0.183613
0.174196
0.17079
0.176954
0.190044
0.201736
0.208352
0.212263
0.215989
0.221299
0.228544
0.237384
0.247297
0.245082
0.254493
0.26203
0.266775
0.268892
0.268407
0.265876
0.262099
0.257488
0.252278
0.246703
0.240632
0.234094
0.226925
0.218893
0.209739
0.199312
0.188083
0.177887
0.172452
0.175533
0.186034
0.196909
0.204017
0.208385
0.212436
0.217748
0.224703
0.233012
0.24211
0.239532
0.249035
0.256725
0.261877
0.264332
0.264474
0.262754
0.259923
0.256371
0.252333
0.247826
0.242896
0.237467
0.23141
0.224444
0.21623
0.20643
0.195307
0.184341
0.176873
0.176914
0.184386
0.193819
0.20095
0.205419
0.209621
0.214847
0.221437
0.229127
0.237383
0.234987
0.244443
0.252152
0.257668
0.260564
0.261451
0.260865
0.259409
0.257387
0.255018
0.252332
0.249308
0.245783
0.241507
0.23618
0.22925
0.220211
0.209143
0.197276
0.187617
0.184358
0.188346
0.195558
0.201499
0.205339
0.209107
0.213824
0.219682
0.22646
0.233678
0.234188
0.243524
0.251415
0.257639
0.261862
0.264405
0.266047
0.267196
0.268043
0.268841
0.269579
0.270064
0.269869
0.26842
0.265258
0.259753
0.251204
0.23986
0.22675
0.214608
0.207641
0.207647
0.211088
0.213685
0.215324
0.21728
0.220171
0.224088
0.22888
0.234217
0.26145
0.270991
0.280062
0.288444
0.296125
0.302823
0.309349
0.315436
0.321183
0.327495
0.333864
0.339658
0.343853
0.345423
0.343821
0.338767
0.329735
0.317472
0.303158
0.289207
0.279462
0.275748
0.273962
0.271247
0.268521
0.266185
0.264496
0.263466
0.26328
0.264111
0.467137
0.474385
0.481842
0.489342
0.49595
0.503149
0.510196
0.515137
0.519057
0.526659
0.534156
0.540152
0.542988
0.541553
0.536204
0.52847
0.518177
0.50687
0.49614
0.487909
0.483705
0.484357
0.485983
0.486588
0.486266
0.484918
0.482722
0.479589
0.475742
0.471773
0.176473
0.193006
0.195192
0.191026
0.182656
0.171611
0.158931
0.145483
0.131788
0.118591
0.106277
0.0956362
0.0858944
0.0778073
0.0700769
0.0648024
0.0660851
0.0903763
0.115423
0.132039
0.139883
0.14134
0.13724
0.130616
0.122955
0.114723
0.107938
0.100603
0.0994644
0.100978
0.307034
0.32379
0.313524
0.2944
0.271792
0.248209
0.224967
0.202783
0.18203
0.163458
0.147122
0.133288
0.122755
0.119282
0.118251
0.122334
0.135939
0.185109
0.236499
0.268616
0.280574
0.282709
0.276656
0.266442
0.25412
0.240032
0.226608
0.209175
0.196481
0.191521
0.389223
0.404443
0.392587
0.371469
0.346135
0.319067
0.291717
0.26517
0.24008
0.217648
0.198264
0.182163
0.169689
0.165781
0.165109
0.170976
0.188014
0.247935
0.314543
0.357836
0.376257
0.381826
0.376695
0.365548
0.351114
0.334164
0.317426
0.295793
0.278761
0.273565
0.448597
0.457656
0.444868
0.42402
0.399056
0.371799
0.343446
0.315234
0.288155
0.263774
0.242937
0.225786
0.211849
0.206633
0.204999
0.210429
0.227647
0.291667
0.367275
0.419192
0.443661
0.453079
0.450068
0.439567
0.424856
0.407051
0.389005
0.365852
0.34683
0.342534
0.49283
0.494709
0.481009
0.461077
0.437607
0.411539
0.383666
0.355273
0.327654
0.30272
0.281553
0.26408
0.249072
0.242199
0.238873
0.24254
0.257969
0.321448
0.401861
0.461133
0.491238
0.504494
0.50427
0.495368
0.481619
0.464288
0.446251
0.423211
0.403481
0.399962
0.525338
0.521008
0.506406
0.487631
0.466047
0.441743
0.415087
0.387358
0.360134
0.335555
0.314733
0.297326
0.281515
0.272857
0.267435
0.268522
0.281124
0.341059
0.422181
0.487794
0.523475
0.540349
0.543036
0.536291
0.524351
0.50854
0.491424
0.469618
0.449861
0.446699
0.548657
0.539338
0.5241
0.506663
0.487107
0.464789
0.439713
0.413144
0.386894
0.36321
0.34312
0.325945
0.309481
0.299
0.291286
0.289413
0.299017
0.35357
0.431574
0.501542
0.543391
0.563606
0.568976
0.564646
0.554899
0.541338
0.525922
0.506183
0.486815
0.483645
0.564252
0.551187
0.535887
0.520049
0.50258
0.482311
0.458982
0.43385
0.408907
0.38641
0.367221
0.350314
0.333288
0.321006
0.310987
0.306265
0.313976
0.362756
0.43613
0.506767
0.553303
0.576621
0.584163
0.582307
0.57491
0.563949
0.550763
0.533748
0.51533
0.511807
0.573199
0.557982
0.543006
0.528995
0.513676
0.495457
0.473932
0.45038
0.426908
0.405725
0.387445
0.370776
0.353248
0.339279
0.327097
0.320219
0.326421
0.369735
0.438656
0.5079
0.556215
0.581887
0.591108
0.590834
0.585828
0.577616
0.56699
0.553053
0.536192
0.532169
0.578259
0.56154
0.547004
0.53452
0.521207
0.505029
0.485319
0.46341
0.441461
0.421602
0.404157
0.387662
0.369699
0.354235
0.340218
0.332728
0.336844
0.374989
0.439569
0.506023
0.554758
0.582269
0.591747
0.592333
0.588969
0.583417
0.575569
0.564861
0.550245
0.545942
0.579861
0.562626
0.548723
0.537642
0.525987
0.511552
0.493676
0.473452
0.453021
0.434419
0.417713
0.401344
0.383023
0.366282
0.351037
0.343687
0.345634
0.378938
0.438507
0.501199
0.54929
0.577017
0.586868
0.588182
0.586033
0.582049
0.576472
0.569647
0.558238
0.554334
0.578267
0.561569
0.54879
0.53893
0.528762
0.515862
0.499427
0.480877
0.461965
0.444521
0.428466
0.412223
0.393617
0.375935
0.360377
0.353078
0.353093
0.381831
0.435776
0.494064
0.541035
0.569062
0.578621
0.579696
0.578621
0.576137
0.572534
0.568029
0.560129
0.557003
0.573264
0.558001
0.546918
0.538852
0.529933
0.518386
0.503305
0.486079
0.468627
0.452263
0.436803
0.420686
0.401923
0.383838
0.369256
0.361167
0.359542
0.383928
0.431631
0.485269
0.53126
0.559066
0.568035
0.568702
0.567575
0.566618
0.564868
0.562691
0.557615
0.555178
0.565031
0.552028
0.543109
0.537113
0.529891
0.519468
0.505648
0.489716
0.473468
0.458069
0.443138
0.427168
0.408539
0.390763
0.377642
0.368485
0.365312
0.385463
0.426485
0.475872
0.52046
0.547655
0.555879
0.556033
0.554668
0.554228
0.554333
0.554118
0.551583
0.550613
0.554521
0.54437
0.5379
0.533909
0.528455
0.519488
0.506798
0.492156
0.476995
0.462445
0.448002
0.43228
0.414212
0.397724
0.385633
0.375415
0.370738
0.386716
0.420979
0.466224
0.509021
0.535386
0.5428
0.542407
0.540696
0.54041
0.541434
0.543228
0.542766
0.54342
0.542572
0.535646
0.531781
0.529793
0.52593
0.518426
0.507131
0.493836
0.4798
0.46598
0.452059
0.436789
0.419847
0.405203
0.393278
0.382284
0.37614
0.387945
0.415776
0.45663
0.497268
0.52271
0.529344
0.528421
0.526317
0.525937
0.527516
0.530626
0.531893
0.534224
0.529865
0.526375
0.525168
0.52513
0.522853
0.516712
0.507133
0.495292
0.48244
0.469402
0.456153
0.441654
0.426606
0.413258
0.401086
0.389446
0.381844
0.389354
0.411177
0.447369
0.485476
0.509975
0.515943
0.514567
0.512079
0.511478
0.513274
0.517236
0.519834
0.523659
0.517446
0.517433
0.518665
0.5204
0.519806
0.515093
0.507466
0.497175
0.485561
0.473667
0.461372
0.448083
0.434569
0.421837
0.409498
0.397286
0.388214
0.391234
0.40741
0.4387
0.473897
0.497444
0.502929
0.501235
0.498452
0.497615
0.49939
0.503824
0.507721
0.512568
0.505716
0.509242
0.513267
0.516753
0.517771
0.51503
0.508983
0.500327
0.490356
0.47965
0.468317
0.456159
0.44366
0.431345
0.418993
0.406249
0.395669
0.394374
0.40488
0.430922
0.462796
0.485319
0.490565
0.488737
0.485826
0.484829
0.486451
0.491057
0.495989
0.502426
0.495193
0.501799
0.508569
0.514351
0.51725
0.516303
0.512048
0.505206
0.496781
0.487264
0.476873
0.465721
0.454181
0.442401
0.430148
0.416898
0.404847
0.399272
0.404687
0.424561
0.452528
0.473829
0.479102
0.477362
0.474552
0.47352
0.474994
0.479618
0.485336
0.493168
0.486279
0.495682
0.505274
0.51316
0.518276
0.51924
0.516793
0.511795
0.505002
0.49679
0.487505
0.477448
0.46693
0.455794
0.443747
0.430022
0.416394
0.406652
0.406844
0.420304
0.443722
0.463314
0.468859
0.467447
0.465008
0.464124
0.465571
0.470153
0.476433
0.485276
0.479345
0.4915
0.503492
0.513447
0.521426
0.52457
0.523958
0.520889
0.515768
0.509159
0.50125
0.492425
0.483131
0.472698
0.461045
0.446931
0.431554
0.417827
0.412686
0.420039
0.437468
0.454493
0.46033
0.459444
0.457624
0.45715
0.458802
0.463383
0.470072
0.479267
0.474831
0.489391
0.503698
0.51695
0.527623
0.533062
0.534545
0.533554
0.530504
0.526156
0.519962
0.512501
0.504789
0.495334
0.484412
0.470156
0.452958
0.435209
0.424072
0.424697
0.435932
0.448893
0.45454
0.454145
0.453093
0.453306
0.455479
0.460052
0.466812
0.47604
0.473205
0.490307
0.508241
0.52477
0.538085
0.545968
0.549896
0.55236
0.552486
0.551044
0.547353
0.541399
0.535875
0.528363
0.518875
0.505149
0.486093
0.464016
0.445883
0.438436
0.442246
0.450191
0.453879
0.453455
0.453033
0.454163
0.45684
0.461457
0.468362
0.477305
0.47758
0.498051
0.519079
0.538989
0.554893
0.566349
0.574218
0.58063
0.585113
0.588093
0.589159
0.587459
0.585254
0.582035
0.575764
0.563944
0.543161
0.515921
0.488862
0.470342
0.464067
0.464574
0.463936
0.461665
0.461128
0.46263
0.465432
0.469896
0.476363
0.484456
0.491834
0.515636
0.540233
0.564448
0.584443
0.600389
0.61419
0.627053
0.638647
0.64935
0.659119
0.667278
0.672618
0.677932
0.678185
0.669969
0.647304
0.613039
0.573898
0.540042
0.518903
0.507238
0.497271
0.489661
0.486282
0.486203
0.487656
0.490728
0.495674
0.502387
0.527174
0.555711
0.585224
0.614427
0.641295
0.665453
0.689681
0.713968
0.737989
0.762336
0.787277
0.811783
0.833575
0.849635
0.858486
0.852044
0.824699
0.78095
0.727625
0.675855
0.636456
0.608435
0.584373
0.56571
0.553679
0.546343
0.541632
0.539299
0.539727
0.542892
0.617523
0.650961
0.68817
0.726513
0.765626
0.804033
0.844928
0.886563
0.928244
0.970433
1.01313
1.05376
1.08764
1.10726
1.10913
1.09032
1.04998
0.996456
0.936018
0.877076
0.830324
0.797579
0.768565
0.741536
0.717996
0.696651
0.676963
0.659897
0.646954
0.640055
0.843012
0.882166
0.927545
0.975245
1.02464
1.07428
1.12571
1.17567
1.2229
1.26378
1.29741
1.32213
1.33071
1.31805
1.28521
1.23508
1.17912
1.12304
1.07181
1.02929
1.00236
0.99698
0.99961
0.996667
0.988573
0.974395
0.952638
0.925094
0.895845
0.871146
1.16678
1.21356
1.25546
1.29169
1.32123
1.34598
1.36566
1.38052
1.38927
1.38795
1.37426
1.35046
1.31763
1.27719
1.22077
1.15909
1.10557
1.06029
1.0255
1.00421
0.997272
1.01003
1.03286
1.06096
1.08919
1.11573
1.13878
1.15865
1.17025
1.17442
0.231789
0.250265
0.251559
0.246055
0.235281
0.220928
0.204225
0.186175
0.167356
0.148663
0.130365
0.113482
0.0999109
0.095792
0.0986823
0.119461
0.155531
0.201949
0.228507
0.243442
0.24779
0.244411
0.234998
0.222383
0.208216
0.193166
0.178855
0.163324
0.152387
0.14331
0.394573
0.413995
0.402005
0.379065
0.351729
0.323004
0.294493
0.266863
0.24035
0.215472
0.191356
0.168296
0.158155
0.173265
0.19819
0.246127
0.314381
0.395681
0.443914
0.468755
0.473775
0.46544
0.446945
0.423382
0.397112
0.368772
0.340359
0.307823
0.278921
0.258495
0.498721
0.51316
0.49724
0.471932
0.442336
0.410912
0.378989
0.347325
0.316498
0.287487
0.259471
0.23308
0.222621
0.242592
0.273897
0.331041
0.412324
0.506319
0.566689
0.600193
0.610527
0.604543
0.5857
0.559683
0.529449
0.495721
0.461224
0.421275
0.385259
0.361903
0.573019
0.577155
0.558964
0.533608
0.504855
0.474092
0.44206
0.409408
0.377084
0.346527
0.317277
0.2903
0.279857
0.300806
0.33362
0.392323
0.47792
0.576299
0.643829
0.683905
0.699462
0.697357
0.680693
0.655409
0.624754
0.589501
0.552657
0.509558
0.469974
0.445431
0.626322
0.621172
0.601226
0.576647
0.54981
0.520895
0.490084
0.457952
0.425764
0.395325
0.36662
0.340684
0.330501
0.350395
0.381973
0.438019
0.522434
0.621037
0.69281
0.737914
0.758098
0.760117
0.746757
0.723879
0.694827
0.660371
0.623495
0.579915
0.538561
0.512995
0.663784
0.651725
0.630703
0.607525
0.582913
0.556246
0.527225
0.496403
0.465316
0.436083
0.408971
0.384944
0.37512
0.392753
0.421313
0.472236
0.552022
0.647355
0.721982
0.770886
0.794948
0.800586
0.790924
0.7713
0.745047
0.71298
0.677628
0.635436
0.593386
0.566619
0.689835
0.672475
0.65115
0.629766
0.607521
0.583199
0.556207
0.527132
0.497742
0.470382
0.44543
0.423674
0.414161
0.428762
0.453184
0.497661
0.570416
0.659905
0.735749
0.788261
0.815395
0.823866
0.817703
0.801586
0.778772
0.750083
0.717359
0.677933
0.636196
0.608548
0.706382
0.685467
0.664832
0.645631
0.625772
0.603755
0.578866
0.551775
0.524435
0.499299
0.476752
0.4573
0.44799
0.459066
0.478797
0.516453
0.580273
0.663648
0.739804
0.793963
0.823484
0.83384
0.830527
0.817768
0.798626
0.774003
0.744695
0.70908
0.668804
0.640653
0.716291
0.693446
0.673506
0.656601
0.639088
0.619293
0.596501
0.571505
0.546387
0.523605
0.50348
0.486187
0.476935
0.484266
0.499249
0.5305
0.585767
0.662962
0.736246
0.792511
0.823832
0.834254
0.831798
0.821907
0.806783
0.786697
0.761365
0.730399
0.692738
0.664282
0.721901
0.69787
0.678765
0.663666
0.648439
0.630792
0.610064
0.587194
0.564338
0.54388
0.526038
0.510677
0.501359
0.504976
0.515643
0.541561
0.588938
0.657451
0.726933
0.783278
0.816102
0.827192
0.82569
0.817609
0.804132
0.786431
0.765839
0.741324
0.708905
0.68121
0.723618
0.699542
0.681515
0.668003
0.65453
0.638942
0.620275
0.599522
0.578883
0.56062
0.544846
0.531169
0.521686
0.521926
0.52918
0.550217
0.590367
0.649843
0.714993
0.770569
0.804216
0.815221
0.814137
0.807318
0.796016
0.780716
0.762474
0.741521
0.715728
0.691387
0.722093
0.699185
0.682358
0.670264
0.658349
0.644395
0.62769
0.609055
0.590547
0.574301
0.560362
0.548112
0.538432
0.535992
0.541297
0.556996
0.590139
0.641193
0.70133
0.755424
0.789312
0.800167
0.799087
0.792753
0.783121
0.770471
0.754899
0.736938
0.714788
0.694957
0.717066
0.696152
0.68149
0.670921
0.660373
0.647976
0.632899
0.616308
0.59985
0.585433
0.573119
0.562079
0.552308
0.548189
0.551604
0.562442
0.588531
0.63202
0.686665
0.738634
0.772445
0.783142
0.781923
0.77575
0.766886
0.756439
0.7437
0.728786
0.710083
0.693461
0.709309
0.690914
0.678662
0.670172
0.661036
0.650133
0.636688
0.62188
0.607364
0.594617
0.583765
0.573783
0.564256
0.559832
0.560724
0.567075
0.586627
0.622788
0.671591
0.720906
0.754449
0.765043
0.763624
0.757403
0.748979
0.739839
0.729573
0.717733
0.702521
0.689089
0.698689
0.68354
0.674139
0.66799
0.660752
0.651353
0.639566
0.62644
0.613753
0.602577
0.593087
0.584118
0.575396
0.570883
0.569222
0.571376
0.5849
0.613898
0.656636
0.702822
0.73595
0.746564
0.744982
0.73864
0.730424
0.722164
0.71355
0.704401
0.692694
0.682408
0.686664
0.675222
0.668893
0.664968
0.659696
0.652155
0.642089
0.630718
0.619802
0.61019
0.602051
0.594194
0.586963
0.581521
0.577613
0.575803
0.58369
0.605731
0.642259
0.684846
0.717397
0.728227
0.726609
0.720204
0.712087
0.704369
0.696975
0.689805
0.681069
0.673734
0.674079
0.666769
0.663627
0.661979
0.658684
0.65313
0.644847
0.635543
0.626444
0.6185
0.611852
0.60538
0.5987
0.592347
0.586386
0.580839
0.583452
0.598679
0.628859
0.66737
0.699109
0.710397
0.708944
0.702648
0.694675
0.687309
0.680782
0.675077
0.668673
0.663655
0.662016
0.659103
0.659158
0.659693
0.658688
0.654945
0.648946
0.641889
0.63481
0.628532
0.623196
0.617625
0.611236
0.604013
0.596114
0.587043
0.584597
0.593181
0.61686
0.65077
0.68133
0.693318
0.692286
0.68637
0.678707
0.671658
0.665746
0.661086
0.656528
0.653368
0.651202
0.652558
0.655557
0.658641
0.660179
0.658573
0.654841
0.649945
0.644915
0.640393
0.636371
0.631576
0.62533
0.617259
0.607575
0.595169
0.587771
0.589829
0.606775
0.635509
0.664287
0.677185
0.676868
0.671648
0.664557
0.657936
0.652533
0.648655
0.645553
0.644166
0.642485
0.647315
0.65343
0.659017
0.663629
0.664336
0.662947
0.660343
0.65753
0.654909
0.652241
0.648143
0.641943
0.63306
0.62184
0.606241
0.593967
0.589476
0.599427
0.62228
0.648406
0.662258
0.662995
0.658768
0.65256
0.646569
0.641706
0.638482
0.636504
0.636565
0.636168
0.64413
0.652821
0.662073
0.669614
0.672997
0.674121
0.673958
0.673593
0.673094
0.671924
0.668558
0.662433
0.652864
0.640456
0.621872
0.604778
0.593459
0.596092
0.612226
0.63455
0.648905
0.65103
0.648068
0.643062
0.637983
0.633801
0.631191
0.630047
0.631433
0.632423
0.642972
0.655281
0.668378
0.679016
0.685327
0.689276
0.691929
0.694394
0.696413
0.697078
0.694692
0.688917
0.679003
0.665937
0.644801
0.62291
0.604236
0.599044
0.607475
0.624546
0.638232
0.641726
0.640075
0.636467
0.632568
0.629289
0.627368
0.627047
0.629358
0.631224
0.645563
0.662326
0.679085
0.693026
0.702649
0.709884
0.715945
0.721875
0.72707
0.7304
0.729677
0.72501
0.715602
0.702768
0.679982
0.653397
0.626867
0.612124
0.611988
0.622054
0.632905
0.636976
0.636382
0.633995
0.631206
0.628682
0.627633
0.628374
0.631333
0.635524
0.654277
0.675148
0.69596
0.713593
0.727194
0.738547
0.749041
0.759525
0.769082
0.776487
0.779164
0.777227
0.7701
0.759158
0.736338
0.705466
0.670729
0.64457
0.632459
0.633711
0.638966
0.641207
0.640316
0.638335
0.636303
0.634547
0.634118
0.635476
0.638968
0.647991
0.671362
0.697064
0.72228
0.744544
0.763365
0.780391
0.7971
0.814066
0.830126
0.844053
0.853176
0.857251
0.855439
0.849118
0.828294
0.794092
0.75108
0.711251
0.683691
0.671594
0.667347
0.663738
0.659705
0.656079
0.653301
0.651158
0.650402
0.651617
0.655214
0.674752
0.703725
0.734941
0.765673
0.794401
0.820705
0.84616
0.872203
0.898854
0.92483
0.948961
0.968552
0.983032
0.990159
0.990201
0.97056
0.92801
0.873863
0.820661
0.7779
0.752002
0.736915
0.72275
0.711226
0.701914
0.694757
0.689121
0.685409
0.684324
0.686813
0.733142
0.767932
0.80607
0.844527
0.882699
0.920144
0.958095
0.997528
1.03757
1.07677
1.11396
1.14612
1.17185
1.18465
1.18061
1.14498
1.08972
1.02511
0.962947
0.911353
0.877691
0.859604
0.843837
0.824123
0.805279
0.788752
0.773868
0.761805
0.753197
0.750917
0.865252
0.905119
0.95104
0.998897
1.04867
1.09939
1.15147
1.20443
1.25639
1.3053
1.34932
1.38412
1.40458
1.39543
1.36401
1.30188
1.23083
1.15934
1.09611
1.04723
1.01881
1.01249
1.01097
1.00686
0.995814
0.976266
0.952542
0.928205
0.90542
0.890342
1.13502
1.17561
1.22294
1.27291
1.32503
1.37783
1.43058
1.48092
1.52646
1.5633
1.58508
1.58678
1.56396
1.51555
1.4476
1.35857
1.27525
1.20288
1.14743
1.11174
1.09926
1.11363
1.13757
1.1641
1.18824
1.20688
1.21441
1.20655
1.18725
1.16501
1.39302
1.44639
1.49141
1.52743
1.55938
1.58742
1.61106
1.62952
1.64032
1.63484
1.60912
1.56491
1.50439
1.42868
1.33908
1.24045
1.15822
1.09435
1.05046
1.02825
1.02724
1.05151
1.08853
1.13462
1.18519
1.23589
1.28624
1.33253
1.37102
1.40192
0.281142
0.303717
0.301887
0.294633
0.281916
0.265086
0.245392
0.223889
0.201082
0.177523
0.153121
0.129165
0.116606
0.131988
0.166737
0.215042
0.263664
0.320694
0.350899
0.363556
0.361765
0.351094
0.334779
0.315531
0.294658
0.27265
0.250728
0.226221
0.20495
0.18361
0.472259
0.494139
0.480254
0.454992
0.424525
0.392375
0.360234
0.32856
0.297079
0.26545
0.231653
0.196797
0.197067
0.254577
0.329503
0.421238
0.51284
0.612626
0.665158
0.684444
0.676807
0.652957
0.6198
0.582711
0.543144
0.50121
0.458272
0.408836
0.362728
0.322227
0.594968
0.606952
0.588537
0.560679
0.5286
0.494796
0.460274
0.425179
0.389368
0.352775
0.313793
0.274497
0.279732
0.351224
0.437841
0.543823
0.651006
0.760723
0.824766
0.8518
0.848493
0.825176
0.790331
0.749569
0.704835
0.655994
0.605139
0.545994
0.490698
0.44459
0.679329
0.678791
0.657034
0.629055
0.598416
0.566241
0.532617
0.497294
0.460381
0.422362
0.382538
0.344014
0.353494
0.429271
0.517627
0.625338
0.736435
0.84712
0.917479
0.950557
0.952677
0.93287
0.900213
0.86024
0.815083
0.764421
0.71084
0.648216
0.588538
0.539232
0.73833
0.727424
0.703142
0.67615
0.647933
0.618299
0.586635
0.552489
0.516266
0.479094
0.441169
0.406463
0.419605
0.494555
0.579459
0.68222
0.790275
0.898236
0.971742
1.0094
1.01644
1.00111
0.972189
0.935128
0.892132
0.842647
0.7893
0.726538
0.66465
0.614109
0.779394
0.760192
0.734822
0.709602
0.684146
0.657275
0.627941
0.595667
0.561228
0.526412
0.492151
0.462838
0.478988
0.550071
0.628329
0.722249
0.823112
0.925164
1.00031
1.04119
1.05219
1.04128
1.01656
0.983446
0.944151
0.897897
0.84676
0.786167
0.723493
0.67346
0.806664
0.78179
0.756669
0.733748
0.711067
0.68691
0.660015
0.630028
0.598131
0.566676
0.537099
0.513797
0.53222
0.597468
0.667181
0.750069
0.841322
0.935353
1.01003
1.05379
1.06759
1.06033
1.03966
1.01082
0.976074
0.934428
0.886985
0.830364
0.76849
0.718037
0.822774
0.795158
0.771531
0.751263
0.731216
0.709613
0.685162
0.657743
0.628915
0.601412
0.57698
0.559714
0.579691
0.637802
0.698025
0.768904
0.849244
0.936869
1.00961
1.05434
1.06846
1.06282
1.0456
1.02141
0.991602
0.955505
0.912867
0.861765
0.802561
0.751383
0.833063
0.803826
0.781379
0.763834
0.746248
0.727036
0.705007
0.680341
0.654892
0.631608
0.612385
0.600884
0.621644
0.671945
0.722404
0.781185
0.851167
0.92786
0.997113
1.04327
1.05879
1.05464
1.03988
1.01742
0.989871
0.958037
0.922111
0.87885
0.825609
0.776424
0.838491
0.808898
0.787794
0.772539
0.757307
0.74036
0.720731
0.698919
0.676982
0.657937
0.643732
0.637571
0.658357
0.700667
0.741628
0.788829
0.847551
0.914267
0.97912
1.02553
1.04197
1.03892
1.02617
1.0065
0.981474
0.952249
0.919589
0.882586
0.837555
0.793335
0.840008
0.811151
0.791611
0.778222
0.765234
0.750472
0.733224
0.714301
0.695876
0.680926
0.671392
0.670058
0.690159
0.724696
0.756941
0.79324
0.840748
0.897504
0.957328
1.00296
1.02035
1.0183
1.00698
0.989569
0.967552
0.9414
0.91186
0.87913
0.840201
0.802922
0.838492
0.811402
0.793434
0.781742
0.770653
0.75808
0.743203
0.727154
0.712148
0.701036
0.695715
0.698712
0.717467
0.744787
0.769149
0.795132
0.831804
0.87878
0.933029
0.977153
0.995535
0.994451
0.98445
0.968681
0.949186
0.926454
0.900236
0.8715
0.837439
0.80646
0.833773
0.809442
0.793745
0.783622
0.774306
0.763813
0.751291
0.738065
0.726331
0.718739
0.717237
0.723857
0.740832
0.761815
0.778803
0.795263
0.821576
0.859088
0.907327
0.949434
0.968834
0.968739
0.959951
0.945588
0.927983
0.908243
0.885709
0.86057
0.83141
0.805278
0.826637
0.805504
0.79258
0.784257
0.776758
0.768234
0.758063
0.747597
0.738968
0.734529
0.736605
0.74595
0.761045
0.776528
0.786463
0.794051
0.810808
0.839223
0.881149
0.920845
0.941263
0.942289
0.934654
0.921533
0.905505
0.888041
0.868746
0.847585
0.822939
0.801613
0.817305
0.799903
0.790003
0.784053
0.778454
0.7719
0.764091
0.756347
0.750668
0.749103
0.754434
0.765668
0.779165
0.789171
0.792701
0.792209
0.800146
0.819846
0.855247
0.892171
0.913554
0.915955
0.909489
0.897561
0.88289
0.867267
0.850497
0.832879
0.812757
0.796007
0.806129
0.792831
0.786447
0.783193
0.779831
0.775377
0.769994
0.764984
0.762116
0.763363
0.771445
0.78394
0.795488
0.800414
0.798176
0.790364
0.790194
0.80153
0.830221
0.864002
0.886232
0.890334
0.885147
0.874512
0.861086
0.846943
0.83225
0.817482
0.801575
0.788988
0.794547
0.785857
0.783021
0.782469
0.78152
0.779358
0.776502
0.774278
0.77423
0.778293
0.788602
0.801512
0.810712
0.810985
0.803709
0.789163
0.781637
0.784857
0.806593
0.836808
0.859646
0.865813
0.862102
0.85294
0.8408
0.827937
0.814941
0.802446
0.789902
0.780876
0.783589
0.779817
0.780458
0.782531
0.784456
0.784733
0.784485
0.78493
0.787643
0.794252
0.806273
0.818993
0.825607
0.821954
0.810154
0.789444
0.774941
0.770565
0.784976
0.811038
0.834069
0.842619
0.840622
0.833185
0.822511
0.810918
0.799363
0.788646
0.77877
0.772479
0.774148
0.77515
0.778901
0.783846
0.788807
0.791736
0.794222
0.79746
0.802972
0.811978
0.825279
0.837378
0.841319
0.834391
0.818673
0.792357
0.7711
0.759348
0.766088
0.787415
0.80983
0.820923
0.820951
0.81548
0.806528
0.796349
0.786138
0.776871
0.769039
0.764863
0.76707
0.77176
0.778443
0.787094
0.795219
0.801024
0.806449
0.812634
0.821029
0.832356
0.846671
0.857922
0.859328
0.849699
0.830807
0.799317
0.771233
0.752108
0.751159
0.766862
0.787696
0.80085
0.80343
0.800087
0.793136