/*--------------------------------*- C++ -*----------------------------------*\
| =========                 |                                                 |
| \\      /  F ield         | OpenFOAM: The Open Source CFD Toolbox           |
|  \\    /   O peration     | Version:  5.0                                   |
|   \\  /    A nd           | Web:      www.OpenFOAM.org                      |
|    \\/     M anipulation  |                                                 |
\*---------------------------------------------------------------------------*/
FoamFile
{
    version     2.0;
    format      ascii;
    class       volScalarField;
    location    "500/air";
    object      nut;
}
// * * * * * * * * * * * * * * * * * * * * * * * * * * * * * * * * * * * * * //

dimensions      [0 2 -1 0 0 0 0];

internalField   nonuniform List<scalar> 
243000
(
0.000181277
0.000179197
0.000172432
0.000164336
0.00015551
0.000146479
0.00013758
0.000129074
0.000121108
0.000113891
0.00010754
0.000102347
9.79929e-05
9.41771e-05
9.05133e-05
8.68086e-05
8.26846e-05
7.86861e-05
7.51041e-05
7.48765e-05
8.06342e-05
8.74662e-05
9.28382e-05
9.78815e-05
0.000102906
0.000107992
0.000113675
0.000120285
0.00012947
0.000142364
0.000835699
0.000850734
0.000838372
0.000818805
0.000794956
0.000768634
0.000740922
0.000712669
0.000684376
0.000657144
0.000631627
0.000609358
0.000589571
0.00057281
0.000556111
0.000537608
0.000513811
0.000491907
0.000478451
0.000498388
0.000553284
0.00059134
0.000600605
0.000607006
0.000613659
0.000620227
0.000628397
0.00063692
0.000653933
0.000684608
0.000924214
0.000935729
0.000921671
0.000899858
0.000873407
0.000844305
0.000813681
0.000782482
0.000751362
0.00072167
0.000694322
0.000670969
0.000650024
0.000631865
0.000613355
0.000592565
0.000565423
0.000541216
0.000532077
0.000568533
0.000642867
0.000689688
0.000696985
0.00069891
0.000704366
0.000710807
0.000719227
0.000727804
0.000744361
0.00077342
0.000981831
0.000989536
0.000975726
0.000954127
0.00092768
0.000898295
0.000867016
0.000834829
0.000802586
0.000771884
0.000743991
0.000720672
0.000699391
0.000680088
0.00065967
0.000636167
0.000605391
0.000577885
0.000571763
0.000618674
0.000707095
0.000761843
0.000770279
0.000768241
0.00077211
0.000778388
0.000787021
0.00079582
0.000811927
0.000839476
0.00102014
0.00102533
0.0010124
0.000991948
0.000966623
0.000938114
0.000907301
0.000875183
0.000842789
0.000811973
0.000784289
0.000761484
0.000740215
0.000719951
0.000697705
0.000671381
0.000637073
0.000607321
0.000604773
0.000654205
0.00075235
0.000814431
0.00082597
0.000821524
0.000823481
0.000829735
0.00083875
0.000848069
0.000863963
0.000890373
0.00104596
0.00104958
0.00103774
0.00101883
0.000995124
0.000968034
0.000938261
0.000906792
0.00087483
0.00084445
0.00081739
0.00079529
0.000774161
0.000753065
0.000729099
0.000700019
0.000662376
0.000632361
0.000631758
0.000680651
0.00078282
0.00085144
0.00086714
0.000862229
0.000862514
0.000868918
0.000878511
0.000888586
0.00090434
0.000929882
0.00106321
0.00106586
0.00105518
0.00103797
0.00101611
0.000990704
0.000962262
0.000931775
0.000900593
0.000870974
0.000844763
0.000823395
0.000802415
0.00078059
0.000754995
0.000723324
0.000682826
0.000653468
0.000653893
0.000702901
0.000800973
0.000875785
0.000896081
0.000892221
0.000891426
0.000898426
0.000908973
0.000919986
0.000935571
0.000960504
0.00107406
0.0010762
0.00106676
0.00105137
0.00103146
0.00100785
0.000980892
0.000951569
0.000921381
0.000892704
0.000867433
0.000846732
0.000825864
0.000803371
0.000776265
0.000742238
0.000700272
0.000671675
0.000672487
0.000720598
0.000811506
0.000889471
0.000914734
0.00091292
0.000911782
0.000919729
0.000931723
0.000944027
0.000959589
0.00098424
0.00107992
0.00108196
0.00107378
0.00106025
0.00104238
0.00102063
0.000995235
0.000967188
0.000938115
0.000910475
0.000886139
0.000866002
0.000845186
0.000822066
0.00079358
0.000757504
0.00071584
0.000687613
0.000688387
0.00073509
0.000820943
0.000895549
0.00092486
0.000925525
0.000924697
0.000933862
0.000947748
0.000961775
0.0009776
0.00100233
0.00108191
0.0010842
0.00107734
0.00106563
0.00104968
0.00102978
0.00100602
0.000979339
0.000951452
0.000924885
0.000901432
0.000881737
0.000860933
0.00083719
0.000807496
0.000769755
0.000729293
0.000701558
0.000702041
0.000746964
0.000828006
0.000896917
0.000927999
0.000931189
0.000931078
0.000941489
0.000957581
0.000973838
0.000990222
0.00101544
0.00108076
0.00108373
0.00107832
0.00106831
0.00105418
0.001036
0.00101375
0.000988471
0.000961846
0.000936374
0.000913731
0.000894374
0.000873513
0.000849201
0.000818497
0.000779525
0.000740813
0.000713741
0.000713656
0.000756376
0.000833024
0.000898236
0.000926977
0.000931174
0.000931884
0.000943673
0.000961941
0.000980653
0.000998199
0.0010244
0.00107703
0.00108086
0.00107714
0.00106885
0.00105638
0.00103982
0.00101901
0.000995026
0.000969641
0.000945256
0.000923365
0.000904269
0.000883286
0.000858495
0.000827005
0.000787503
0.000750808
0.000724429
0.000723442
0.000763525
0.000836081
0.000897966
0.000925539
0.000929565
0.000928962
0.000941463
0.000962112
0.000983093
0.00100212
0.00102945
0.00107096
0.00107583
0.00107386
0.00106748
0.0010567
0.00104158
0.00102213
0.000999401
0.000975148
0.000951815
0.000930621
0.000911698
0.000890588
0.000865435
0.000833394
0.000795003
0.00075974
0.000733871
0.000731624
0.000768651
0.000837546
0.000896244
0.000923079
0.000927272
0.000926323
0.000936056
0.000958145
0.00098179
0.00100266
0.00103106
0.00106258
0.00106882
0.00106876
0.00106428
0.00105524
0.00104162
0.00102339
0.00100185
0.000978705
0.00095626
0.000935716
0.000916926
0.000895724
0.000870324
0.000837958
0.000801581
0.000767721
0.000742242
0.000738424
0.000772056
0.000837038
0.00089315
0.000919578
0.00092416
0.000923327
0.000931024
0.000950853
0.000976806
0.000999888
0.00102964
0.00105206
0.00106004
0.00106197
0.00105942
0.00105207
0.00103992
0.00102303
0.00100264
0.00098052
0.000958926
0.00093886
0.000920145
0.000898915
0.000873418
0.00084103
0.000807215
0.000774857
0.000749686
0.00074408
0.000774014
0.000834861
0.000888734
0.000914969
0.000920145
0.000919668
0.00092598
0.000943688
0.000968778
0.000994115
0.00102528
0.00103963
0.00104959
0.00105359
0.001053
0.00104727
0.00103654
0.00102096
0.00100186
0.000980843
0.000960024
0.000940406
0.00092175
0.000900504
0.000874984
0.000843978
0.000812281
0.000781328
0.000756381
0.000748821
0.000774916
0.000831231
0.000883042
0.000909256
0.000915182
0.000915224
0.000920686
0.000936647
0.000959073
0.000985708
0.00101827
0.0010255
0.00103759
0.00104371
0.00104504
0.00104091
0.00103147
0.00101725
0.000999446
0.000979626
0.000959735
0.000940626
0.000922072
0.000900873
0.000875495
0.00084675
0.000816951
0.000787296
0.000762488
0.000752872
0.000774649
0.000826307
0.000876124
0.000902464
0.000909266
0.000909962
0.000915007
0.000929552
0.00095005
0.000975175
0.00100889
0.00101054
0.00102426
0.00103241
0.00103557
0.00103304
0.0010249
0.00101189
0.000995462
0.000976886
0.000957952
0.000939414
0.000921051
0.000900013
0.000875826
0.000849385
0.000821363
0.000792918
0.000768159
0.000756435
0.000773565
0.000820286
0.000867983
0.000894622
0.000902409
0.000903899
0.000908888
0.000922279
0.000941397
0.000964913
0.000997367
0.000996645
0.00101091
0.00102009
0.00102477
0.00102378
0.00101694
0.00100516
0.000989988
0.000972694
0.000954766
0.000936849
0.000918784
0.000898751
0.000876548
0.000852066
0.00082567
0.00079834
0.000773573
0.00075976
0.000771972
0.000813383
0.000858811
0.000885787
0.000894644
0.000897092
0.000902294
0.000914848
0.000932924
0.000955126
0.000984146
0.000983545
0.000998387
0.00100852
0.00101388
0.00101379
0.00100795
0.000997433
0.000983676
0.000967855
0.000951138
0.000934153
0.000916901
0.000898278
0.00087769
0.000854921
0.00083001
0.000803714
0.000778913
0.000763098
0.000770218
0.000805828
0.000848777
0.000876036
0.00088605
0.000889606
0.000895236
0.000907229
0.000924501
0.000945613
0.000971684
0.000971022
0.000986479
0.000997499
0.00100354
0.00100432
0.000999483
0.000990186
0.000977825
0.000963459
0.000948032
0.000932111
0.000915818
0.000898491
0.000879315
0.000858056
0.000834509
0.000809179
0.000784352
0.000766624
0.000768674
0.000797973
0.000838026
0.000865496
0.000876756
0.000881574
0.000887785
0.000899436
0.000916028
0.000936238
0.000960055
0.000958894
0.000975052
0.000986857
0.000993569
0.000995229
0.000991411
0.000983313
0.000972332
0.000959418
0.000945348
0.000930613
0.000915429
0.000899287
0.000881429
0.000861554
0.000839289
0.000814882
0.000790083
0.000770593
0.000767762
0.000790438
0.000826864
0.000854344
0.000866942
0.000873178
0.000880075
0.000891571
0.000907594
0.00092698
0.000948991
0.00094702
0.00096387
0.000976451
0.000983881
0.000986401
0.000983625
0.00097673
0.000967125
0.000955679
0.000943042
0.000929598
0.000915636
0.000900638
0.000884074
0.000865535
0.000844531
0.000821053
0.000796376
0.000775297
0.000767941
0.000783802
0.000815777
0.000842866
0.000856839
0.000864605
0.000872255
0.000883734
0.000899256
0.000917815
0.000938326
0.000935372
0.000952792
0.000966264
0.000974416
0.000977754
0.000976035
0.000970365
0.00096218
0.000952258
0.00094113
0.000929143
0.000916454
0.000902684
0.000887463
0.00087031
0.000850647
0.000828193
0.000803793
0.000781378
0.00076978
0.000778844
0.000805591
0.000831626
0.000847044
0.000856189
0.000864625
0.000876143
0.000891196
0.000908926
0.000928065
0.000924097
0.000942059
0.000956232
0.000965152
0.000969222
0.000968596
0.000964222
0.000957516
0.000949215
0.000939725
0.000929477
0.000918216
0.000905965
0.000892345
0.000876827
0.000858767
0.00083758
0.000813696
0.000790194
0.000774659
0.000777075
0.000797652
0.000821787
0.000838315
0.000848515
0.000857635
0.000869171
0.000883715
0.000900519
0.000918286
0.000913521
0.000931853
0.000946434
0.000956216
0.000960933
0.000961427
0.000958498
0.00095349
0.000947105
0.000939777
0.000931537
0.000922463
0.000912395
0.00090105
0.000887807
0.0008719
0.00085241
0.000829354
0.000804996
0.000785646
0.000781479
0.000795156
0.000815736
0.000832361
0.000842693
0.000852141
0.000863507
0.000877365
0.000893036
0.000909328
0.000904835
0.000923237
0.000937974
0.000948486
0.000954056
0.0009559
0.000955014
0.000952503
0.000948936
0.000944713
0.000939909
0.000934491
0.000928153
0.000920405
0.000910629
0.000897679
0.000880358
0.00085834
0.000833267
0.000810422
0.000799442
0.000805179
0.000820285
0.000834155
0.000843075
0.000851533
0.000861782
0.000874116
0.000887971
0.000902332
0.000903448
0.000921615
0.000936693
0.000948482
0.000956492
0.000961311
0.000964458
0.000966678
0.000968342
0.000969926
0.000971433
0.000972537
0.00097247
0.000970204
0.000964886
0.000955319
0.000940041
0.000919048
0.000893513
0.000867751
0.000850327
0.00084768
0.00085415
0.000860299
0.000864282
0.000868779
0.000875072
0.000883283
0.000893037
0.000903638
0.000955238
0.000972756
0.000989101
0.00100395
0.00101742
0.00102897
0.00104013
0.00105042
0.00106004
0.00107054
0.00108107
0.00109065
0.00109765
0.00110045
0.00109823
0.00109055
0.0010764
0.00105656
0.00103247
0.0010075
0.000988229
0.000979849
0.000976251
0.000971691
0.000967132
0.00096325
0.000960485
0.000958855
0.000958711
0.000960354
0.00127869
0.00128863
0.00129875
0.00130881
0.00131749
0.00132694
0.00133635
0.00134284
0.00134795
0.00135791
0.00136775
0.00137567
0.00137955
0.00137778
0.00137116
0.00136147
0.00134841
0.00133363
0.0013192
0.00130764
0.00130094
0.00130133
0.00130362
0.00130458
0.00130432
0.00130266
0.00129983
0.0012957
0.00129055
0.00128521
0.000222143
0.000223716
0.000216796
0.000206904
0.000195461
0.000183353
0.000171121
0.000159164
0.000147674
0.000136982
0.000127215
0.000118793
0.000111205
0.000104931
9.91039e-05
9.49278e-05
9.53927e-05
0.000111089
0.000127315
0.000138644
0.000145666
0.000150129
0.000152242
0.000153171
0.000153521
0.000153437
0.000154242
0.000154511
0.000159687
0.00016742
0.00100626
0.00105506
0.000959818
0.000843961
0.00073818
0.00064855
0.000574904
0.000515048
0.000466281
0.000428283
0.000396636
0.000370575
0.000356372
0.000368991
0.00038756
0.000412669
0.000452216
0.000556769
0.000668104
0.000735982
0.000757803
0.000767089
0.000763792
0.000761404
0.000758387
0.000751495
0.000741172
0.000710326
0.000665898
0.000645284
0.00168079
0.00180913
0.00171496
0.00155537
0.00138594
0.00123003
0.00109549
0.000983797
0.000892791
0.00082348
0.000766619
0.000721163
0.00069538
0.000711886
0.000733678
0.000763622
0.000824958
0.00100382
0.0012086
0.00134016
0.00139469
0.00141791
0.0014118
0.00139898
0.00138609
0.00136917
0.00134659
0.00129585
0.00121906
0.00119414
0.00222374
0.0023885
0.00232285
0.00216223
0.00196695
0.00177209
0.00159453
0.00144252
0.00131851
0.00121998
0.00114069
0.00108032
0.00104196
0.00105146
0.00106492
0.00108925
0.00116366
0.00139175
0.00166655
0.00185957
0.00195251
0.00199436
0.00199
0.00197069
0.00195096
0.00192825
0.00189872
0.00183771
0.00174401
0.00172193
0.00267281
0.00284457
0.00280928
0.00266471
0.00246563
0.00225194
0.00204731
0.00186688
0.00171577
0.00159688
0.00150222
0.00142936
0.00137819
0.0013741
0.00137257
0.00138507
0.00146516
0.00172504
0.00205185
0.00229796
0.00242792
0.00249066
0.00249943
0.00247768
0.00244913
0.00242454
0.00239332
0.00233151
0.00223145
0.00221224
0.00304163
0.00321143
0.00320466
0.00308231
0.00289119
0.00267186
0.00245224
0.00225225
0.00208223
0.00195032
0.00184444
0.00176142
0.00169745
0.00167574
0.00165522
0.00165156
0.00172915
0.00200308
0.00235989
0.0026571
0.00282537
0.00290901
0.00293283
0.00291985
0.0028983
0.00286892
0.00283417
0.00277319
0.00267664
0.00265799
0.00335631
0.00351567
0.00353091
0.00343214
0.00325526
0.0030388
0.00281303
0.002602
0.00241921
0.00227847
0.00216551
0.00207335
0.00199625
0.00195468
0.00191312
0.00189085
0.00196256
0.00223375
0.00259521
0.00293476
0.00314945
0.00325427
0.00329351
0.00329101
0.00327967
0.00326363
0.00323702
0.00317297
0.00307347
0.0030551
0.00362229
0.00376777
0.00380107
0.00372649
0.00356741
0.0033594
0.00313395
0.00291809
0.00272817
0.00257953
0.00246308
0.00236314
0.00227271
0.0022102
0.00214693
0.00210651
0.00217451
0.00243352
0.00279693
0.0031533
0.00340378
0.00353169
0.00358517
0.00359591
0.00359446
0.00359364
0.00358371
0.00353599
0.0034367
0.00342012
0.00384217
0.00397838
0.00402408
0.00397343
0.00383473
0.003639
0.00341862
0.00320258
0.00301103
0.00285634
0.00273513
0.00262979
0.00252587
0.00244258
0.00235786
0.00230336
0.00236427
0.0026067
0.00297179
0.00334002
0.0036048
0.00374826
0.00381374
0.0038368
0.00384784
0.00386214
0.00386955
0.00384442
0.00375249
0.00373884
0.004042
0.00416461
0.00421564
0.0041811
0.00406164
0.00388125
0.00366962
0.00345732
0.00326657
0.00310955
0.00298084
0.00286906
0.00275516
0.00265244
0.00254778
0.0024882
0.0025331
0.00275515
0.00311943
0.00348595
0.0037611
0.00392545
0.00399135
0.00401849
0.00404214
0.00407285
0.00409953
0.00409575
0.00402284
0.00401501
0.00422116
0.00433101
0.00438316
0.00435974
0.00425463
0.00408753
0.00388817
0.00368314
0.00349527
0.00333816
0.00320475
0.00308373
0.00295764
0.00283919
0.00271999
0.00265833
0.00268175
0.00288036
0.00322934
0.00358375
0.00385883
0.00403437
0.00411233
0.00414727
0.0041819
0.00422168
0.00426206
0.00429162
0.00425074
0.00425342
0.0043766
0.00447754
0.00453219
0.00451417
0.00442074
0.00426563
0.00407511
0.00388004
0.0036978
0.00354127
0.00340492
0.00327762
0.00314069
0.00300668
0.00287912
0.00281054
0.0028104
0.00298193
0.00330206
0.00363652
0.00390818
0.00409906
0.00418539
0.00422583
0.00427405
0.00432983
0.00438547
0.00442759
0.00442392
0.00443909
0.00449908
0.00459576
0.00465436
0.00464865
0.00456284
0.00441835
0.00423744
0.0040491
0.0038743
0.00371978
0.00358192
0.00344913
0.00330255
0.00315754
0.00303104
0.00294373
0.00291946
0.0030604
0.00334081
0.00364991
0.00392173
0.00412158
0.00421538
0.00426284
0.00431813
0.00439427
0.00447003
0.0045318
0.00455675
0.0045816
0.00458289
0.00467914
0.00474543
0.00475511
0.00468459
0.00454807
0.00437677
0.0041965
0.00402724
0.00387568
0.00373699
0.00359951
0.0034463
0.00329635
0.00317278
0.00306045
0.00300853
0.00311777
0.00335028
0.00363526
0.00390257
0.00410568
0.00420624
0.00426214
0.00432622
0.00441476
0.00451666
0.00460115
0.0046528
0.00469864
0.004632
0.00473405
0.00481052
0.00483359
0.00477971
0.00465786
0.00449492
0.00432398
0.00415998
0.00401167
0.00387284
0.003732
0.00357633
0.00342948
0.00330102
0.00316165
0.00308174
0.00315379
0.00333781
0.00359615
0.00385409
0.00405641
0.00416226
0.00422787
0.00430234
0.00440219
0.00452229
0.00463807
0.00471437
0.00478292
0.00465298
0.00476582
0.00485396
0.00488988
0.00484955
0.00474315
0.00459375
0.004434
0.004277
0.00413127
0.00399322
0.00385092
0.00369818
0.00355639
0.00340987
0.00324738
0.00313943
0.00316747
0.00331073
0.00353706
0.00378039
0.00397908
0.00408836
0.00416443
0.00425035
0.00436114
0.00449659
0.00464158
0.00474346
0.00483606
0.00464952
0.00477765
0.00487814
0.00492573
0.00489899
0.00480627
0.00467605
0.00452958
0.00438095
0.0042384
0.00410329
0.0039615
0.00381522
0.00367197
0.00350101
0.00331802
0.00318284
0.00316913
0.00326907
0.00346321
0.0036861
0.0038787
0.00399008
0.00407669
0.0041745
0.004296
0.00444389
0.00461143
0.00474345
0.00486036
0.00462739
0.00477639
0.00488705
0.00494344
0.00493225
0.00485352
0.00474577
0.00461387
0.0044733
0.00433712
0.0042034
0.00406762
0.00392378
0.00376522
0.00357402
0.00337333
0.00321242
0.00315746
0.00320649
0.00337363
0.00357574
0.00376054
0.00387262
0.00396942
0.0040795
0.00421158
0.00436896
0.00455275
0.00471579
0.00486031
0.00457837
0.00475425
0.00488708
0.00495375
0.00495757
0.00490084
0.004807
0.00468623
0.00455713
0.00442874
0.0042975
0.00416121
0.0040079
0.0038328
0.00362679
0.00341162
0.00322728
0.00313558
0.00313947
0.00326648
0.00345294
0.00362885
0.00374043
0.00384683
0.00397048
0.00411194
0.00427642
0.00447101
0.00465901
0.00484805
0.00450918
0.00470142
0.00485186
0.0049445
0.00496775
0.00492807
0.00484901
0.00474195
0.00462173
0.00449632
0.004364
0.00422185
0.00405818
0.00387097
0.00365418
0.00342847
0.00322651
0.00310027
0.0030736
0.00315186
0.00331386
0.00348711
0.0035992
0.00371532
0.00384941
0.00400009
0.00417107
0.00437201
0.0045778
0.00480076
0.00442352
0.00462497
0.00479356
0.00490106
0.00494483
0.00492193
0.00485541
0.00476206
0.00465017
0.00452702
0.00439199
0.00424249
0.004068
0.00387121
0.00364669
0.00341501
0.00320144
0.00304768
0.00299222
0.00303676
0.00316975
0.00333457
0.00345949
0.00358607
0.00372911
0.00388519
0.00405828
0.00426097
0.00447792
0.00472005
0.00432358
0.00453113
0.00470478
0.00482082
0.00489062
0.00488404
0.00482691
0.00474323
0.00463672
0.00451321
0.00437215
0.00421268
0.00402547
0.00381795
0.00358943
0.00335669
0.00313833
0.00296933
0.00289429
0.00291909
0.0030251
0.00317669
0.00331713
0.00346438
0.00361695
0.00377875
0.0039545
0.00415533
0.00437525
0.00461684
0.00421051
0.00441388
0.00458473
0.00472265
0.00480618
0.00480939
0.00475885
0.0046783
0.00457089
0.00444065
0.00428702
0.00411246
0.00391074
0.00369204
0.00346299
0.00323572
0.00302103
0.00284978
0.00276546
0.00277895
0.00287237
0.00300904
0.0031657
0.00332698
0.00348989
0.00365961
0.00384169
0.00404082
0.00425774
0.0044878
0.00407599
0.00427256
0.0044547
0.00459996
0.00468361
0.00468579
0.0046343
0.00455018
0.00443161
0.00428582
0.00411239
0.00391774
0.00370241
0.00347673
0.00325218
0.00304081
0.00284007
0.00267962
0.0025958
0.00260803
0.00269646
0.00283414
0.00300624
0.00318078
0.00335453
0.00353595
0.00372465
0.00392427
0.00413609
0.00434718
0.00393521
0.00413022
0.00430073
0.00443492
0.00449887
0.00448745
0.00442291
0.00432137
0.00418392
0.00401815
0.0038259
0.00361615
0.00339716
0.00317957
0.00297284
0.00279213
0.00261836
0.00247905
0.00240066
0.00240688
0.00249251
0.00263773
0.00282726
0.00300908
0.0031948
0.00338775
0.00358461
0.00378632
0.00399038
0.00417809
0.00376153
0.00393814
0.0040818
0.00418352
0.00420903
0.00416861
0.00408034
0.00395737
0.00380457
0.00363095
0.00344231
0.00324654
0.00305028
0.00287033
0.00270428
0.00256897
0.0024345
0.00231975
0.00224396
0.00223315
0.00229674
0.00243111
0.00261139
0.00278808
0.00297637
0.00317711
0.00338203
0.0035883
0.0037893
0.00396452
0.00349083
0.00363564
0.00373176
0.00378392
0.00376735
0.00370333
0.00360584
0.0034862
0.00335104
0.00320888
0.00306599
0.00292718
0.00279302
0.00267155
0.00256404
0.00247535
0.00237893
0.00228718
0.00221271
0.00217792
0.0022006
0.00228835
0.00241223
0.00254603
0.00270272
0.00288091
0.00307302
0.00327256
0.00346997
0.00364022
0.00309395
0.00319126
0.00324832
0.00327436
0.00325278
0.00320789
0.0031478
0.00307829
0.00300276
0.00292665
0.00285435
0.00278595
0.00271477
0.00264119
0.00257145
0.00250993
0.00244007
0.00237077
0.00230831
0.00226632
0.00226207
0.00230387
0.00236692
0.00243664
0.00252388
0.00263112
0.00275718
0.00289917
0.0030467
0.00318465
0.00279532
0.00285832
0.00290405
0.00293531
0.00294156
0.00293769
0.00292602
0.00290674
0.00288001
0.00284528
0.0028081
0.00277035
0.00272594
0.00268328
0.00263433
0.00258499
0.00253494
0.00248804
0.00244716
0.00241696
0.00241306
0.00243589
0.00246713
0.00250815
0.00255517
0.002609
0.0026688
0.00273525
0.00279954
0.00285291
0.00277735
0.00281838
0.00284623
0.0028635
0.00286735
0.00286516
0.00285683
0.00284425
0.00282622
0.00280794
0.00278762
0.00276374
0.00273278
0.00269952
0.00266433
0.00263361
0.00260723
0.00258745
0.00257263
0.00256668
0.00257065
0.00258797
0.00261139
0.00263906
0.00266765
0.00269583
0.00272018
0.00274309
0.00276844
0.0027905
0.000254513
0.000254764
0.000246131
0.00023485
0.000221879
0.00020809
0.000194041
0.000180118
0.000166468
0.000153404
0.000140897
0.000129353
0.000119686
0.000115862
0.00011656
0.000127315
0.000145807
0.000167725
0.000180762
0.00018969
0.000195252
0.000198568
0.000200012
0.000200399
0.000200171
0.000199411
0.00019879
0.000197061
0.000197736
0.000199447
0.00123822
0.00133554
0.00124502
0.00110075
0.000963019
0.000845099
0.000748829
0.000670572
0.000606422
0.000555027
0.000506285
0.000459704
0.000454254
0.000527678
0.000605454
0.000704392
0.000827112
0.000969306
0.00106672
0.00112035
0.0011392
0.00113534
0.00111323
0.00108716
0.00105857
0.00102398
0.000981177
0.00091589
0.000833022
0.000774169
0.00210676
0.00231672
0.00224368
0.00206062
0.00184799
0.0016452
0.0014681
0.00131897
0.00119521
0.00109708
0.0010074
0.000924464
0.000912116
0.00102918
0.00114928
0.00131034
0.00152535
0.00177163
0.00196143
0.00208039
0.00213443
0.00213893
0.00210229
0.00205298
0.00199515
0.0019233
0.00184087
0.00172447
0.00157057
0.00146656
0.00282425
0.00307506
0.00304428
0.00287165
0.00263385
0.00238368
0.00215079
0.00194686
0.00177477
0.00163989
0.0015157
0.0014085
0.00138734
0.00152046
0.00165997
0.00185521
0.00213458
0.00245669
0.0027195
0.00289962
0.00299208
0.00301483
0.00297503
0.00291336
0.00284035
0.00274937
0.00264158
0.00248173
0.00227806
0.00214632
0.0034267
0.00369408
0.00370031
0.0035525
0.00331326
0.00303952
0.00277073
0.00252799
0.00232082
0.0021568
0.00201083
0.00188874
0.00185815
0.00198872
0.00213198
0.00234101
0.00265748
0.0030359
0.00335523
0.00358875
0.00371709
0.00376245
0.00372837
0.00366378
0.0035875
0.00349121
0.00337206
0.0031869
0.00294651
0.00279112
0.00394897
0.00421496
0.00425465
0.00413573
0.003906
0.00362282
0.00333224
0.00306338
0.00283172
0.00264657
0.00248813
0.00235685
0.00231569
0.0024316
0.00256596
0.00277399
0.00310556
0.00351667
0.00388603
0.00416514
0.00432556
0.00439278
0.004371
0.00431081
0.00423611
0.00414827
0.00402985
0.00384154
0.00358159
0.00340559
0.00441
0.00466639
0.00473432
0.00464458
0.00442974
0.00414578
0.00384345
0.00355827
0.00331029
0.00311248
0.0029441
0.0028076
0.00275446
0.00284778
0.00296552
0.00316016
0.00348849
0.00390987
0.00431749
0.00464338
0.00483159
0.00491733
0.00491133
0.00486086
0.00479487
0.00471632
0.00461428
0.0044351
0.00416648
0.00397442
0.00481481
0.00505833
0.00515419
0.0050945
0.00489726
0.00461811
0.00431133
0.00401723
0.00375948
0.00355306
0.00337484
0.00323697
0.00317069
0.00323572
0.00333011
0.00350553
0.00381538
0.00424758
0.00468483
0.00503542
0.00524812
0.00534717
0.00535661
0.00531926
0.00526753
0.00520769
0.00512184
0.00496845
0.00470306
0.00450151
0.00518333
0.00541585
0.00552722
0.00549536
0.00531719
0.00504671
0.00474095
0.00444349
0.00418052
0.00396732
0.00378541
0.00364267
0.00356187
0.00359735
0.00366409
0.0038166
0.00410289
0.00454632
0.00498671
0.0053712
0.00560469
0.00570013
0.00570713
0.00568401
0.00565636
0.0056251
0.00556276
0.00543971
0.00519296
0.00498872
0.00553294
0.00574994
0.00586872
0.00585307
0.00569454
0.0054359
0.0051356
0.004839
0.00457389
0.00435548
0.00416921
0.00401884
0.00392653
0.00392937
0.00397092
0.00409995
0.00436029
0.00477712
0.0052105
0.00561097
0.00587134
0.00597795
0.00599175
0.00597717
0.0059476
0.00591863
0.00589315
0.00583024
0.00563969
0.00544408
0.00585818
0.00606471
0.00618634
0.00617946
0.00603211
0.00578748
0.00549704
0.00520475
0.00493964
0.00471702
0.00452575
0.00436997
0.00426458
0.00423596
0.00425497
0.00435682
0.00459058
0.00496467
0.00538466
0.00579256
0.0060748
0.00619153
0.00621433
0.00621051
0.00619488
0.00617426
0.00615348
0.00611073
0.00600011
0.00584829
0.00615928
0.00636632
0.00648394
0.00647929
0.00633963
0.00610419
0.00582563
0.00554124
0.00527796
0.00505198
0.00485584
0.00469434
0.00457678
0.00452059
0.00452114
0.00458717
0.0047855
0.00511369
0.00551112
0.00591752
0.006216
0.00634655
0.00638126
0.00638906
0.00638943
0.00638861
0.0063823
0.00635565
0.00627898
0.00619028
0.00642513
0.00663259
0.00675822
0.00675496
0.0066191
0.00639354
0.00612338
0.00584882
0.00558944
0.0053611
0.00516083
0.00499408
0.00486504
0.00478706
0.00476272
0.00479044
0.0049396
0.00522351
0.00559081
0.00598621
0.00629722
0.00644439
0.0064957
0.00652008
0.00653558
0.00655655
0.00657421
0.00657118
0.00652787
0.00648051
0.00665331
0.00686272
0.00699653
0.00700349
0.00687189
0.00665659
0.00639681
0.00612953
0.00587535
0.00564588
0.00544308
0.0052717
0.00513231
0.00503875
0.00497936
0.00496569
0.00506147
0.00529429
0.00562449
0.00600011
0.00632018
0.00648585
0.00655839
0.00660496
0.00664064
0.00668164
0.00672631
0.00675534
0.00674976
0.00674436
0.00682965
0.00704808
0.00719476
0.0072156
0.00709783
0.00689438
0.00664669
0.00638619
0.00613747
0.00590864
0.00570523
0.00552953
0.00538086
0.00526739
0.00516946
0.00511097
0.00515089
0.005326
0.0056127
0.00596165
0.0062864
0.0064715
0.0065697
0.00664425
0.00670572
0.00677064
0.0068408
0.00690403
0.00694195
0.00697944
0.00696996
0.00720216
0.00736301
0.00739327
0.0072903
0.00710717
0.00687291
0.00662115
0.00637848
0.00615229
0.0059486
0.00576788
0.00561009
0.00546607
0.0053294
0.00522306
0.005205
0.00531845
0.00555528
0.0058742
0.00619722
0.00640244
0.00652986
0.00663792
0.00673091
0.00682423
0.00692265
0.00701876
0.00709791
0.00717705
0.00707786
0.00732996
0.0075046
0.00754287
0.00745584
0.0072947
0.00707292
0.00683604
0.00660006
0.00637706
0.00617219
0.00598511
0.00580496
0.0056285
0.00545259
0.00529713
0.00522144
0.00527187
0.00545377
0.00573903
0.00605457
0.00627989
0.00643914
0.00658574
0.00671546
0.0068419
0.00697154
0.00710101
0.00721886
0.00733216
0.00715814
0.00743474
0.00762126
0.00766372
0.00760039
0.0074536
0.00725025
0.00702999
0.00680078
0.00657846
0.00636416
0.0061624
0.00595659
0.00574697
0.00553024
0.00532634
0.00519398
0.00517709
0.00530803
0.00555672
0.00586152
0.00610483
0.00629794
0.00648628
0.00665722
0.00682162
0.00698548
0.00714924
0.00730404
0.00744899
0.0072105
0.00750729
0.00769629
0.00775172
0.00771298
0.00758476
0.00739921
0.00718252
0.00695758
0.00673271
0.00650873
0.00628769
0.00605213
0.00580787
0.0055511
0.00530181
0.00511572
0.00504122
0.00511062
0.0053201
0.00561828
0.00587725
0.00610664
0.00633644
0.00655339
0.00676059
0.00696072
0.00715974
0.00735106
0.00752996
0.00723699
0.00753256
0.00772707
0.00779815
0.00779228
0.00766733
0.00749097
0.00728182
0.0070584
0.00682741
0.00658861
0.00634301
0.00607411
0.00579383
0.00549961
0.00521066
0.00497814
0.00485184
0.00487407
0.00504603
0.00532468
0.00561761
0.00589166
0.00615713
0.00641302
0.00665561
0.00689177
0.00712623
0.00735451
0.00756533
0.00722656
0.0075043
0.00769451
0.00779527
0.00780168
0.00769
0.00751836
0.00731076
0.00708328
0.00684063
0.00658091
0.00630556
0.00600102
0.00568447
0.00535735
0.00503663
0.00476865
0.00460272
0.00458958
0.00472804
0.0049823
0.00529331
0.0056254
0.00595535
0.00625455
0.00653155
0.00679646
0.00705579
0.00730848
0.00755349
0.00714471
0.00740389
0.00760175
0.00772506
0.00773635
0.00762967
0.00745708
0.00724456
0.00700587
0.00674535
0.00645905
0.00615011
0.00581067
0.00546077
0.00510841
0.00476679
0.00447615
0.00428537
0.00425263
0.00436576
0.00459674
0.00492259
0.00529398
0.00566179
0.00601238
0.0063439
0.00665586
0.00695185
0.00723228
0.00749595
0.00697517
0.00723478
0.00744271
0.00756764
0.00757075
0.00745813
0.00727602
0.00705028
0.00679319
0.0065095
0.00619725
0.00585651
0.00548924
0.00511617
0.00475093
0.00440579
0.00410764
0.00390512
0.00385716
0.00396276
0.00417682
0.00450945
0.00491021
0.00530785
0.00569247
0.0060589
0.00640313
0.00673528
0.00705337
0.00733582
0.00672789
0.00698792
0.00717839
0.00728905
0.00726863
0.00713791
0.0069378
0.00669277
0.00641509
0.00611096
0.00578135
0.00542529
0.00504839
0.00467357
0.00431599
0.00399123
0.00370232
0.00350153
0.00343936
0.0035266
0.00373349
0.00406488
0.00447237
0.00488235
0.00528807
0.00568185
0.006058
0.0064214
0.00676695
0.00706311
0.00636344
0.0066062
0.00676718
0.0068398
0.00678539
0.00662948
0.00641073
0.0061518
0.00586562
0.00555987
0.00523705
0.00489725
0.00454558
0.00420101
0.0038806
0.00360034
0.0033384
0.00315203
0.00307852
0.00312958
0.00330252
0.00361302
0.00399155
0.00438114
0.00478443
0.00518818
0.00558381
0.00596886
0.00633524
0.00664399
0.00582073
0.00603706
0.00615141
0.00617718
0.00609206
0.00592256
0.00570523
0.00546008
0.00519919
0.00492928
0.00465266
0.00436879
0.00408202
0.0038023
0.0035435
0.00331785
0.00311747
0.00296428
0.00288344
0.00289201
0.00299796
0.0032227
0.00352381
0.00384777
0.00420344
0.00457723
0.00496062
0.00534174
0.00571156
0.00603066
0.00508194
0.00525355
0.00532738
0.00532928
0.00524553
0.00510273
0.00493123
0.00474555
0.00455366
0.00435901
0.00416233
0.00396131
0.00375768
0.00354843
0.00336526
0.00320056
0.00304984