/*--------------------------------*- C++ -*----------------------------------*\
| =========                 |                                                 |
| \\      /  F ield         | OpenFOAM: The Open Source CFD Toolbox           |
|  \\    /   O peration     | Version:  5.0                                   |
|   \\  /    A nd           | Web:      www.OpenFOAM.org                      |
|    \\/     M anipulation  |                                                 |
\*---------------------------------------------------------------------------*/
FoamFile
{
    version     2.0;
    format      ascii;
    class       volScalarField;
    location    "1050/porous";
    object      T;
}
// * * * * * * * * * * * * * * * * * * * * * * * * * * * * * * * * * * * * * //

dimensions      [0 0 0 1 0 0 0];

internalField   nonuniform List<scalar> 
36000
(
400
400
400
400
399.999
399.582
399.205
398.854
398.52
398.198
397.885
397.579
397.277
396.98
396.687
396.397
396.11
395.827
395.546
395.268
394.993
394.718
394.443
394.166
393.889
393.612
393.337
393.064
392.794
392.528
392.267
392.012
391.763
391.527
391.31
391.832
392.186
392.454
392.674
392.859
400
400
400
400
399.999
399.632
399.3
398.993
398.703
398.427
398.161
397.902
397.65
397.403
397.16
396.922
396.689
396.458
396.231
396.008
395.787
395.568
395.348
395.127
394.906
394.687
394.468
394.253
394.04
393.83
393.624
393.424
393.229
393.044
392.869
393.213
393.454
393.64
393.789
393.92
400
400
400
400
399.999
399.638
399.314
399.017
398.738
398.474
398.221
397.977
397.741
397.511
397.287
397.068
396.855
396.645
396.441
396.24
396.043
395.848
395.652
395.456
395.261
395.066
394.874
394.685
394.498
394.316
394.137
393.964
393.797
393.638
393.489
393.806
394.032
394.207
394.348
394.469
400
400
400
400
399.999
399.638
399.314
399.017
398.74
398.478
398.227
397.986
397.753
397.527
397.308
397.095
396.887
396.684
396.486
396.293
396.104
395.916
395.729
395.54
395.353
395.167
394.983
394.803
394.625
394.452
394.283
394.119
393.962
393.812
393.673
393.984
394.209
394.383
394.524
394.644
400
400
400
400
399.999
399.637
399.314
399.017
398.74
398.478
398.228
397.987
397.755
397.531
397.313
397.101
396.894
396.694
396.498
396.307
396.121
395.936
395.751
395.565
395.379
395.196
395.015
394.837
394.662
394.492
394.326
394.166
394.012
393.866
393.729
394.039
394.263
394.437
394.579
394.699
400
400
400
400
399.999
399.637
399.312
399.015
398.738
398.476
398.225
397.985
397.753
397.528
397.311
397.099
396.893
396.693
396.498
396.309
396.123
395.939
395.754
395.569
395.384
395.201
395.021
394.844
394.67
394.5
394.335
394.176
394.023
393.878
393.743
394.052
394.276
394.45
394.592
394.712
400
400
400
400
399.999
399.636
399.312
399.015
398.738
398.476
398.226
397.986
397.754
397.53
397.313
397.101
396.896
396.696
396.502
396.314
396.129
395.945
395.76
395.575
395.39
395.208
395.028
394.851
394.677
394.508
394.343
394.184
394.031
393.886
393.751
394.06
394.284
394.458
394.599
394.719
400
400
400
400
399.999
399.636
399.313
399.016
398.739
398.477
398.227
397.986
397.755
397.531
397.314
397.103
396.898
396.699
396.506
396.318
396.133
395.948
395.763
395.578
395.394
395.211
395.032
394.855
394.681
394.512
394.347
394.188
394.035
393.89
393.755
394.064
394.288
394.461
394.603
394.723
400
400
400
400
399.999
399.637
399.313
399.017
398.741
398.479
398.229
397.99
397.759
397.536
397.319
397.109
396.904
396.706
396.513
396.325
396.139
395.955
395.77
395.585
395.401
395.219
395.04
394.863
394.689
394.52
394.355
394.195
394.043
393.897
393.762
394.071
394.294
394.467
394.609
394.729
400
400
400
400
399.999
399.637
399.314
399.019
398.743
398.481
398.232
397.993
397.763
397.54
397.324
397.115
396.911
396.713
396.52
396.331
396.144
395.959
395.774
395.59
395.407
395.225
395.046
394.869
394.696
394.526
394.361
394.201
394.048
393.903
393.767
394.075
394.298
394.472
394.613
394.733
400
400
400
400
399.999
399.638
399.316
399.021
398.746
398.485
398.236
397.998
397.768
397.547
397.332
397.124
396.921
396.723
396.528
396.337
396.149
395.963
395.779
395.596
395.414
395.233
395.054
394.878
394.704
394.535
394.369
394.21
394.056
393.909
393.772
394.08
394.304
394.477
394.618
394.738
400
400
400
400
399.999
399.639
399.317
399.023
398.748
398.488
398.24
398.002
397.773
397.552
397.338
397.131
396.929
396.73
396.534
396.341
396.152
395.965
395.782
395.6
395.419
395.239
395.06
394.884
394.711
394.541
394.376
394.216
394.062
393.915
393.776
394.084
394.308
394.481
394.622
394.741
400
400
400
400
399.999
399.64
399.32
399.026
398.752
398.492
398.244
398.006
397.778
397.557
397.344
397.138
396.936
396.737
396.54
396.346
396.155
395.969
395.785
395.605
395.425
395.246
395.068
394.892
394.719
394.55
394.384
394.224
394.069
393.92
393.779
394.089
394.312
394.485
394.626
394.746
400
400
400
400
399.999
399.641
399.322
399.028
398.754
398.495
398.247
398.009
397.781
397.56
397.347
397.141
396.939
396.74
396.542
396.348
396.157
395.97
395.787
395.608
395.429
395.251
395.074
394.899
394.726
394.556
394.39
394.229
394.074
393.924
393.781
394.091
394.315
394.488
394.629
394.749
400
400
400
400
399.999
399.642
399.323
399.03
398.757
398.497
398.249
398.011
397.782
397.561
397.348
397.142
396.94
396.74
396.543
396.348
396.157
395.97
395.788
395.609
395.432
395.255
395.079
394.904
394.731
394.561
394.395
394.234
394.077
393.927
393.783
394.093
394.317
394.49
394.631
394.751
400
400
400
400
399.999
399.644
399.326
399.034
398.76
398.501
398.252
398.014
397.784
397.562
397.348
397.141
396.939
396.74
396.542
396.347
396.156
395.97
395.788
395.609
395.433
395.257
395.081
394.906
394.734
394.564
394.397
394.235
394.078
393.925
393.779
394.09
394.314
394.488
394.629
394.749
400
400
400
400
399.999
399.645
399.328
399.036
398.762
398.502
398.253
398.014
397.784
397.561
397.346
397.138
396.936
396.737
396.539
396.345
396.155
395.968
395.786
395.608
395.432
395.256
395.08
394.906
394.733
394.563
394.396
394.233
394.075
393.922
393.774
394.086
394.311
394.484
394.626
394.746
400
400
400
400
399.999
399.647
399.33
399.038
398.764
398.504
398.255
398.015
397.784
397.56
397.344
397.135
396.932
396.733
396.537
396.344
396.154
395.967
395.785
395.607
395.43
395.254
395.078
394.903
394.73
394.56
394.392
394.229
394.07
393.916
393.768
394.08
394.305
394.479
394.621
394.741
400
400
400
400
399.999
399.648
399.333
399.041
398.767
398.506
398.256
398.015
397.783
397.559
397.342
397.132
396.928
396.73
396.534
396.342
396.153
395.967
395.785
395.605
395.427
395.249
395.073
394.898
394.725
394.554
394.386
394.222
394.062
393.907
393.757
394.07
394.296
394.471
394.613
394.733
400
400
400
400
399.999
399.649
399.334
399.042
398.768
398.507
398.257
398.016
397.783
397.558
397.34
397.129
396.925
396.727
396.532
396.342
396.154
395.969
395.786
395.605
395.425
395.246
395.069
394.893
394.72
394.548
394.38
394.215
394.055
393.899
393.75
394.063
394.29
394.465
394.607
394.728
400
400
400
400
399.999
399.651
399.336
399.044
398.769
398.508
398.257
398.016
397.783
397.557
397.338
397.126
396.921
396.723
396.53
396.341
396.154
395.969
395.785
395.602
395.421
395.241
395.063
394.887
394.712
394.54
394.372
394.206
394.046
393.89
393.739
394.053
394.28
394.456
394.599
394.72
400
400
400
400
399.999
399.651
399.336
399.045
398.77
398.509
398.258
398.016
397.783
397.557
397.337
397.125
396.92
396.721
396.529
396.341
396.154
395.969
395.784
395.6
395.417
395.237
395.058
394.881
394.707
394.534
394.365
394.2
394.039
393.882
393.731
394.046
394.274
394.45
394.593
394.714
400
400
400
400
399.999
399.651
399.337
399.045
398.77
398.509
398.258
398.016
397.782
397.555
397.336
397.123
396.917
396.718
396.527
396.339
396.152
395.966
395.78
395.595
395.412
395.23
395.051
394.874
394.699
394.526
394.357
394.191
394.029
393.873
393.722
394.038
394.266
394.442
394.586
394.707
400
400
400
400
399.999
399.652
399.337
399.046
398.772
398.51
398.259
398.017
397.783
397.556
397.337
397.123
396.917
396.719
396.527
396.339
396.151
395.964
395.778
395.593
395.409
395.227
395.048
394.87
394.695
394.522
394.353
394.187
394.025
393.868
393.717
394.033
394.262
394.438
394.582
394.704
400
400
400
400
399.999
399.652
399.338
399.046
398.772
398.51
398.259
398.016
397.782
397.555
397.335
397.122
396.916
396.717
396.525
396.336
396.147
395.959
395.772
395.587
395.403
395.221
395.041
394.864
394.688
394.515
394.345
394.179
394.017
393.859
393.709
394.025
394.254
394.43
394.574
394.696
400
400
400
400
399.999
399.652
399.339
399.048
398.773
398.512
398.261
398.019
397.784
397.557
397.337
397.124
396.917
396.718
396.525
396.334
396.145
395.956
395.769
395.582
395.398
395.216
395.035
394.857
394.681
394.507
394.337
394.169
394.006
393.848
393.696
394.013
394.241
394.418
394.562
394.683
400
400
400
400
399.999
399.653
399.339
399.047
398.772
398.51
398.259
398.016
397.78
397.552
397.331
397.116
396.908
396.707
396.512
396.319
396.127
395.936
395.746
395.557
395.371
395.186
395.003
394.822
394.643
394.467
394.294
394.124
393.958
393.796
393.641
393.959
394.188
394.365
394.508
394.63
400
400
400
400
399.999
399.653
399.338
399.045
398.769
398.505
398.251
398.004
397.765
397.533
397.307
397.087
396.874
396.666
396.464
396.263
396.064
395.865
395.668
395.472
395.278
395.085
394.894
394.704
394.517
394.332
394.15
393.97
393.795
393.623
393.459
393.783
394.013
394.191
394.333
394.456
400
400
400
400
399.999
399.646
399.323
399.02
398.732
398.455
398.188
397.927
397.672
397.422
397.178
396.938
396.705
396.476
396.251
396.028
395.806
395.584
395.362
395.142
394.923
394.705
394.488
394.273
394.06
393.848
393.639
393.433
393.23
393.031
392.84
393.191
393.437
393.625
393.776
393.908
400
400
400
400
399.999
399.598
399.229
398.881
398.548
398.225
397.91
397.601
397.296
396.996
396.7
396.409
396.123
395.842
395.564
395.287
395.01
394.733
394.456
394.18
393.906
393.632
393.359
393.088
392.818
392.551
392.286
392.023
391.765
391.513
391.273
391.805
392.164
392.436
392.657
392.845
400
400
400
400
399.999
399.778
399.527
399.258
398.98
398.696
398.411
398.125
397.84
397.556
397.272
396.99
396.71
396.432
396.155
395.88
395.607
395.335
395.063
394.789
394.515
394.241
393.968
393.696
393.426
393.159
392.896
392.638
392.385
392.141
391.912
392.159
392.394
392.605
392.791
392.954
400
400
400
400
400
399.81
399.597
399.372
399.14
398.904
398.669
398.434
398.2
397.968
397.738
397.51
397.285
397.062
396.841
396.623
396.407
396.192
395.978
395.763
395.548
395.334
395.12
394.908
394.698
394.49
394.285
394.084
393.888
393.698
393.515
393.629
393.751
393.868
393.975
394.076
400
400
400
400
400
399.814
399.608
399.391
399.169
398.945
398.723
398.502
398.284
398.069
397.857
397.648
397.443
397.24
397.041
396.846
396.653
396.462
396.272
396.082
395.892
395.703
395.516
395.33
395.146
394.965
394.788
394.614
394.445
394.281
394.125
394.227
394.336
394.442
394.539
394.631
400
400
400
400
400
399.813
399.608
399.391
399.17
398.948
398.728
398.51
398.295
398.084
397.876
397.672
397.472
397.276
397.084
396.895
396.709
396.526
396.343
396.161
395.98
395.799
395.62
395.443
395.268
395.096
394.928
394.764
394.604
394.45
394.304
394.404
394.512
394.617
394.715
394.805
400
400
400
400
400
399.813
399.607
399.391
399.17
398.949
398.729
398.511
398.297
398.087
397.88
397.678
397.479
397.285
397.094
396.908
396.725
396.544
396.364
396.184
396.005
395.827
395.65
395.476
395.304
395.135
394.97
394.809
394.652
394.502
394.358
394.459
394.567
394.671
394.769
394.86
400
400
400
400
400
399.813
399.606
399.389
399.168
398.946
398.726
398.508
398.294
398.083
397.877
397.675
397.477
397.283
397.093
396.907
396.725
396.545
396.366
396.186
396.008
395.83
395.655
395.481
395.31
395.142
394.978
394.817
394.662
394.513
394.37
394.471
394.579
394.683
394.782
394.873
400
400
400
400
400
399.813
399.606
399.389
399.168
398.946
398.726
398.508
398.294
398.084
397.878
397.676
397.479
397.285
397.096
396.911
396.73
396.55
396.371
396.191
396.013
395.836
395.661
395.487
395.317
395.149
394.985
394.825
394.669
394.52
394.378
394.479
394.586
394.691
394.789
394.881
400
400
400
400
400
399.813
399.606
399.389
399.168
398.946
398.725
398.508
398.294
398.084
397.878
397.677
397.479
397.286
397.097
396.913
396.731
396.552
396.372
396.193
396.015
395.838
395.663
395.49
395.319
395.152
394.987
394.827
394.672
394.523
394.381
394.482
394.589
394.694
394.792
394.883
400
400
400
400
400
399.813
399.606
399.39
399.169
398.947
398.727
398.51
398.297
398.087
397.882
397.681
397.484
397.292
397.103
396.919
396.737
396.557
396.378
396.199
396.021
395.845
395.67
395.497
395.326
395.159
394.995
394.834
394.679
394.53
394.387
394.488
394.595
394.7
394.798
394.889
400
400
400
400
400
399.813
399.607
399.39
399.17
398.948
398.729
398.512
398.299
398.09
397.885
397.685
397.489
397.297
397.109
396.924
396.741
396.561
396.382
396.203
396.026
395.849
395.675
395.502
395.331
395.164
395
394.839
394.684
394.534
394.391
394.492
394.599
394.704
394.802
394.893
400
400
400
400
400
399.814
399.608
399.392
399.172
398.951
398.732
398.515
398.303
398.095
397.891
397.692
397.496
397.304
397.116
396.93
396.747
396.566
396.387
396.209
396.032
395.856
395.681
395.509
395.339
395.171
395.007
394.847
394.691
394.541
394.397
394.497
394.605
394.709
394.807
394.898
400
400
400
400
400
399.814
399.608
399.393
399.173
398.953
398.734
398.518
398.306
398.099
397.896
397.697
397.502
397.31
397.121
396.934
396.75
396.568
396.389
396.212
396.035
395.86
395.686
395.514
395.344
395.177
395.013
394.852
394.696
394.546
394.401
394.501
394.609
394.713
394.811
394.902
400
400
400
400
400
399.814
399.61
399.395
399.176
398.955
398.737
398.521
398.31
398.103
397.9
397.702
397.508
397.316
397.126
396.939
396.754
396.572
396.393
396.216
396.041
395.866
395.693
395.521
395.352
395.184
395.02
394.86
394.703
394.552
394.406
394.506
394.613
394.718
394.816
394.906
400
400
400
400
400
399.815
399.611
399.396
399.177
398.957
398.739
398.524
398.312
398.105
397.903
397.705
397.51
397.318
397.128
396.941
396.755
396.573
396.394
396.218
396.044
395.87
395.697
395.526
395.357
395.19
395.026
394.865
394.708
394.556
394.409
394.509
394.616
394.721
394.818
394.909
400
400
400
400
400
399.815
399.612
399.398
399.179
398.959
398.741
398.525
398.314
398.106
397.904
397.706
397.511
397.319
397.129
396.941
396.756
396.574
396.395
396.219
396.045
395.872
395.701
395.53
395.361
395.194
395.03
394.869
394.712
394.559
394.411
394.511
394.618
394.723
394.821
394.911
400
400
400
400
400
399.817
399.614
399.4
399.182
398.962
398.743
398.528
398.316
398.108
397.905
397.706
397.511
397.319
397.129
396.941
396.756
396.573
396.395
396.219
396.046
395.874
395.702
395.532
395.363
395.196
395.032
394.871
394.713
394.559
394.409
394.509
394.617
394.721
394.819
394.91
400
400
400
400
400
399.817
399.615
399.401
399.183
398.963
398.745
398.528
398.316
398.107
397.904
397.704
397.509
397.317
397.127
396.939
396.754
396.572
396.393
396.218
396.045
395.873
395.701
395.531
395.362
395.195
395.031
394.869
394.711
394.556
394.406
394.506
394.613
394.718
394.816
394.907
400
400
400
400
400
399.818
399.616
399.403
399.185
398.965
398.746
398.53
398.317
398.108
397.903
397.703
397.507
397.315
397.125
396.937
396.753
396.571
396.393
396.217
396.043
395.871
395.699
395.529
395.36
395.193
395.028
394.866
394.707
394.552
394.401
394.501
394.608
394.713
394.811
394.902
400
400
400
400
400
399.819
399.617
399.405
399.186
398.966
398.747
398.53
398.317
398.107
397.902
397.701
397.505
397.312
397.122
396.936
396.752
396.57
396.392
396.216
396.041
395.868
395.696
395.525
395.356
395.188
395.022
394.86
394.7
394.544
394.393
394.493
394.6
394.705
394.803
394.895
400
400
400
400
400
399.819
399.618
399.406
399.187
398.968
398.748
398.531
398.317
398.107
397.901
397.7
397.503
397.31
397.121
396.935
396.752
396.571
396.393
396.216
396.04
395.866
395.693
395.522
395.352
395.184
395.018
394.855
394.695
394.539
394.387
394.487
394.595
394.7
394.798
394.889
400
400
400
400
400
399.82
399.619
399.407
399.189
398.968
398.749
398.532
398.317
398.107
397.9
397.698
397.5
397.308
397.119
396.934
396.751
396.571
396.392
396.214
396.038
395.863
395.689
395.517
395.347
395.178
395.011
394.848
394.687
394.531
394.378
394.478
394.586
394.692
394.79
394.882
400
400
400
400
400
399.82
399.62
399.408
399.19
398.97
398.75
398.533
398.318
398.107
397.901
397.698
397.5
397.307
397.119
396.934
396.752
396.572
396.392
396.214
396.036
395.861
395.686
395.514
395.343
395.174
395.007
394.843
394.682
394.525
394.372
394.473
394.581
394.686
394.785
394.877
400
400
400
400
400
399.82
399.62
399.408
399.19
398.97
398.75
398.533
398.318
398.107
397.9
397.697
397.498
397.305
397.117
396.933
396.75
396.569
396.389
396.21
396.032
395.856
395.681
395.508
395.337
395.167
395
394.836
394.675
394.517
394.364
394.465
394.573
394.679
394.778
394.87
400
400
400
400
400
399.821
399.621
399.409
399.191
398.971
398.752
398.534
398.32
398.109
397.901
397.698
397.5
397.307
397.118
396.934
396.751
396.57
396.389
396.21
396.031
395.855
395.68
395.506
395.335
395.165
394.998
394.833
394.672
394.514
394.36
394.461
394.57
394.676
394.775
394.867
400
400
400
400
400
399.821
399.621
399.409
399.192
398.972
398.752
398.534
398.32
398.108
397.901
397.698
397.499
397.305
397.117
396.932
396.748
396.566
396.385
396.205
396.027
395.85
395.674
395.5
395.329
395.159
394.991
394.826
394.664
394.506
394.353
394.454
394.562
394.668
394.767
394.859
400
400
400
400
400
399.821
399.622
399.411
399.193
398.974
398.755
398.537
398.322
398.111
397.903
397.7
397.501
397.307
397.118
396.932
396.748
396.565
396.383
396.202
396.023
395.846
395.67
395.495
395.322
395.152
394.984
394.818
394.655
394.496
394.341
394.442
394.551
394.656
394.756
394.847
400
400
400
400
400
399.821
399.622
399.41
399.193
398.973
398.753
398.535
398.319
398.107
397.898
397.693
397.493
397.298
397.106
396.918
396.731
396.546
396.362
396.179
395.997
395.817
395.639
395.462
395.286
395.113
394.942
394.773
394.608
394.445
394.288
394.389
394.497
394.603
394.702
394.793
400
400
400
400
400
399.822
399.622
399.41
399.19
398.969
398.746
398.525
398.306
398.09
397.876
397.667
397.461
397.26
397.062
396.867
396.673
396.48
396.288
396.098
395.909
395.72
395.534
395.348
395.164
394.982
394.802
394.624
394.449
394.278
394.11
394.212
394.322
394.429
394.527
394.62
400
400
400
400
400
399.817
399.611
399.389
399.16
398.926
398.691
398.455
398.22
397.987
397.755
397.527
397.301
397.079
396.859
396.642
396.425
396.209
395.993
395.778
395.564
395.35
395.138
394.927
394.716
394.508
394.301
394.096
393.894
393.695
393.501
393.616
393.738
393.856
393.964
394.065
400
400
400
400
399.999
399.786
399.541
399.277
399.001
398.718
398.433
398.146
397.859
397.572
397.287
397.004
396.723
396.446
396.171
395.897
395.624
395.35
395.076
394.803
394.531
394.259
393.987
393.717
393.448
393.181
392.915
392.652
392.392
392.137
391.89
392.138
392.376
392.588
392.776
392.94
400
400
400
400
400
399.861
399.701
399.522
399.327
399.118
398.899
398.67
398.434
398.193
397.947
397.698
397.447
397.194
396.939
396.684
396.428
396.171
395.913
395.653
395.392
395.13
394.867
394.605
394.344
394.083
393.825
393.57
393.319
393.074
392.838
392.912
393.006
393.109
393.216
393.314
400
400
400
400
400
399.88
399.746
399.599
399.441
399.273
399.098
398.918
398.732
398.543
398.352
398.159
397.964
397.768
397.572
397.376
397.18
396.984
396.787
396.589
396.391
396.192
395.993
395.795
395.597
395.4
395.205
395.012
394.822
394.636
394.455
394.456
394.47
394.496
394.528
394.563
400
400
400
400
400
399.883
399.753
399.612
399.461
399.303
399.139
398.971
398.8
398.626
398.452
398.276
398.1
397.925
397.749
397.575
397.402
397.229
397.056
396.882
396.708
396.535
396.362
396.19
396.019
395.849
395.681
395.515
395.353
395.194
395.039
395.042
395.055
395.076
395.103
395.134
400
400
400
400
400
399.883
399.753
399.612
399.462
399.305
399.143
398.978
398.809
398.639
398.468
398.297
398.126
397.956
397.787
397.619
397.452
397.286
397.12
396.955
396.789
396.623
396.459
396.295
396.132
395.971
395.813
395.656
395.503
395.354
395.209
395.213
395.228
395.251
395.279
395.311
400
400
400
400
400
399.883
399.753
399.612
399.462
399.306
399.144
398.979
398.811
398.642
398.472
398.302
398.133
397.964
397.797
397.631
397.466
397.303
397.139
396.975
396.812
396.649
396.487
396.326
396.166
396.008
395.853
395.699
395.549
395.403
395.261
395.267
395.283
395.306
395.335
395.368
400
400
400
400
400
399.883
399.752
399.611
399.461
399.304
399.142
398.976
398.808
398.639
398.469
398.299
398.13
397.961
397.794
397.629
397.465
397.302
397.139
396.976
396.814
396.651
396.49
396.33
396.171
396.014
395.859
395.706
395.557
395.412
395.271
395.278
395.294
395.318
395.346
395.38
400
400
400
400
400
399.883
399.752
399.611
399.461
399.304
399.142
398.976
398.809
398.639
398.47
398.3
398.131
397.963
397.796
397.632
397.468
397.306
397.143
396.98
396.818
396.656
396.495
396.335
396.176
396.019
395.865
395.712
395.564
395.419
395.278
395.285
395.301
395.325
395.354
395.387
400
400
400
400
400
399.883
399.752
399.611
399.461
399.303
399.141
398.976
398.808
398.639
398.469
398.299
398.13
397.962
397.796
397.632
397.468
397.306
397.143
396.98
396.818
396.656
396.495
396.336
396.177
396.02
395.866
395.714
395.565
395.42
395.28
395.286
395.303
395.326
395.355
395.389
400
400
400
400
400
399.883
399.752
399.611
399.461
399.304
399.142
398.977
398.809
398.641
398.471
398.302
398.134
397.966
397.8
397.636
397.473
397.31
397.148
396.985
396.823
396.661
396.501
396.341
396.183
396.026
395.872
395.72
395.571
395.426
395.285
395.292
395.308
395.332
395.361
395.394
400
400
400
400
400
399.883
399.753
399.612
399.462
399.305
399.143
398.978
398.811
398.642
398.473
398.304
398.136
397.969
397.804
397.639
397.475
397.313
397.15
396.988
396.826
396.664
396.504
396.344
396.186
396.03
395.875
395.723
395.574
395.429
395.288
395.295
395.311
395.335
395.364
395.397
400
400
400
400
400
399.883
399.754
399.613
399.463
399.307
399.145
398.98
398.814
398.646
398.477
398.309
398.142
397.975
397.809
397.644
397.48
397.317
397.155
396.993
396.831
396.67
396.51
396.35
396.192
396.036
395.881
395.729
395.58
395.435
395.294
395.3
395.316
395.34
395.369
395.402
400
400
400
400
400
399.883
399.754
399.613
399.464
399.308
399.147
398.982
398.816
398.648
398.48
398.313
398.146
397.979
397.813
397.647
397.483
397.319
397.157
396.995
396.834
396.673
396.513
396.354
396.196
396.04
395.885
395.734
395.584
395.439
395.297
395.304
395.32
395.343
395.372
395.405
400
400
400
400
400
399.884
399.755
399.615
399.466
399.31
399.149
398.985
398.818
398.651
398.484
398.316
398.15
397.983
397.817
397.651
397.486
397.323
397.16
396.999
396.838
396.678
396.518
396.36
396.202
396.046
395.892
395.74
395.591
395.445
395.302
395.308
395.324
395.348
395.377
395.41
400
400
400
400
400
399.884
399.755
399.616
399.467
399.311
399.15
398.986
398.82
398.653
398.485
398.318
398.152
397.985
397.819
397.653
397.488
397.324
397.161
397
396.84
396.681
396.521
396.363
396.206
396.05
395.896
395.744
395.595
395.448
395.305
395.311
395.327
395.351
395.379
395.413
400
400
400
400
400
399.884
399.756
399.616
399.468
399.312
399.151
398.987
398.821
398.654
398.486
398.319
398.153
397.986
397.82
397.653
397.488
397.324
397.162
397.001
396.842
396.682
396.524
396.366
396.209
396.053
395.899
395.747
395.598
395.451
395.307
395.313
395.329
395.353
395.381
395.415
400
400
400
400
400
399.885
399.757
399.618
399.47
399.314
399.153
398.989
398.823
398.655
398.487
398.32
398.153
397.986
397.82
397.654
397.488
397.324
397.162
397.002
396.842
396.683
396.525
396.367
396.21
396.055
395.901
395.748
395.599
395.451
395.307
395.313
395.328
395.352
395.381
395.414
400
400
400
400
400
399.885
399.758
399.619
399.47
399.315
399.154
398.99
398.823
398.655
398.487
398.319
398.152
397.985
397.818
397.652
397.487
397.323
397.161
397
396.841
396.682
396.524
396.366
396.209
396.054
395.899
395.747
395.597
395.449
395.304
395.31
395.326
395.349
395.378
395.411
400
400
400
400
400
399.886
399.759
399.62
399.472
399.316
399.155
398.991
398.824
398.655
398.487
398.319
398.151
397.984
397.817
397.651
397.486
397.323
397.16
397
396.84
396.681
396.523
396.365
396.208
396.052
395.898
395.745
395.594
395.446
395.301
395.306
395.322
395.345
395.374
395.407
400
400
400
400
400
399.886
399.759
399.621
399.473
399.317
399.156
398.992
398.824
398.656
398.486
398.318
398.15
397.982
397.816
397.65
397.485
397.322
397.16
396.999
396.839
396.679
396.52
396.362
396.205
396.049
395.894
395.741
395.59
395.441
395.294
395.3
395.316
395.339
395.368
395.401
400
400
400
400
400
399.887
399.76
399.622
399.474
399.318
399.157
398.992
398.825
398.656
398.487
398.317
398.149
397.982
397.815
397.65
397.486
397.323
397.161
396.999
396.839
396.679
396.519
396.361
396.203
396.046
395.891
395.738
395.586
395.437
395.29
395.296
395.312
395.335
395.364
395.397
400
400
400
400
400
399.887
399.761
399.622
399.474
399.319
399.158
398.993
398.825
398.656
398.486
398.316
398.148
397.98
397.814
397.649
397.485
397.322
397.16
396.998
396.837
396.676
396.516
396.357
396.199
396.042
395.886
395.732
395.581
395.431
395.284
395.289
395.305
395.329
395.357
395.391
400
400
400
400
400
399.887
399.761
399.623
399.475
399.32
399.159
398.994
398.826
398.657
398.487
398.317
398.148
397.98
397.815
397.65
397.487
397.324
397.161
396.999
396.837
396.676
396.516
396.356
396.198
396.04
395.884
395.73
395.577
395.427
395.28
395.286
395.302
395.325
395.354
395.387
400
400
400
400
400
399.887
399.761
399.623
399.475
399.32
399.159
398.994
398.826
398.657
398.487
398.316
398.147
397.979
397.813
397.649
397.485
397.322
397.159
396.996
396.834
396.673
396.512
396.352
396.193
396.035
395.879
395.724
395.572
395.422
395.274
395.28
395.295
395.319
395.348
395.381
400
400
400
400
400
399.887
399.762
399.624
399.476
399.321
399.16
398.996
398.828
398.659
398.489
398.319
398.149
397.982
397.816
397.651
397.487
397.324
397.16
396.997
396.835
396.673
396.512
396.352
396.193
396.035
395.879
395.724
395.571
395.42
395.273
395.278
395.294
395.317
395.346
395.379
400
400
400
400
400
399.888
399.762
399.624
399.476
399.321
399.161
398.996
398.828
398.659
398.488
398.318
398.149
397.981
397.815
397.65
397.486
397.321
397.158
396.994
396.832
396.669
396.508
396.348
396.188
396.03
395.873
395.718
395.565
395.414
395.266
395.271
395.287
395.31
395.339
395.372
400
400
400
400
400
399.888
399.762
399.625
399.478
399.323
399.163
398.998
398.831
398.661
398.491
398.321
398.151
397.983
397.817
397.651
397.486
397.322
397.157
396.993
396.83
396.667
396.505
396.344
396.184
396.025
395.867
395.711
395.557
395.405
395.256
395.261
395.276
395.299
395.327
395.36
400
400
400
400
400
399.888
399.762
399.624
399.477
399.322
399.161
398.996
398.828
398.657
398.486
398.315
398.144
397.974
397.806
397.639
397.471
397.304
397.138
396.971
396.806
396.64
396.476
396.312
396.149
395.987
395.827
395.668
395.511
395.356
395.204
395.208
395.222
395.244
395.272
395.304
400
400
400
400
400
399.888
399.762
399.624
399.475
399.319
399.156
398.988
398.817
398.643
398.468
398.292
398.116
397.941
397.767
397.593
397.419
397.245
397.071
396.898
396.724
396.551
396.378
396.206
396.035
395.865
395.695
395.527
395.361
395.197
395.035
395.036
395.049
395.07
395.096
395.127
400
400
400
400
400
399.885
399.755
399.61
399.454
399.288
399.114
398.934
398.748
398.559
398.367
398.173
397.978
397.783
397.588
397.392
397.196
396.999
396.801
396.604
396.405
396.207
396.009
395.811
395.613
395.416
395.22
395.025
394.831
394.64
394.451
394.451
394.465
394.49
394.521
394.556
400
400
400
400
400
399.866
399.71
399.534
399.341
399.134
398.915
398.686
398.45
398.207
397.961
397.711
397.459
397.207
396.953
396.698
396.442
396.185
395.926
395.667
395.406
395.146
394.884
394.623
394.363
394.102
393.843
393.585
393.329
393.076
392.828
392.9
392.994
393.098
393.204
393.303
400
400
400
400
400
399.894
399.776
399.646
399.505
399.353
399.191
399.019
398.839
398.65
398.455
398.253
398.045
397.833
397.616
397.396
397.172
396.946
396.716
396.483
396.247
396.008
395.767
395.525
395.283
395.039
394.797
394.555
394.315
394.08
393.849
393.846
393.856
393.878
393.908
393.935
400
400
400
400
400
399.908
399.808
399.701
399.586
399.465
399.337
399.204
399.066
398.922
398.775
398.623
398.469
398.311
398.151
397.989
397.825
397.659
397.491
397.32
397.148
396.975
396.8
396.625
396.449
396.273
396.097
395.922
395.748
395.577
395.408
395.371
395.34
395.317
395.298
395.282
400
400
400
400
400
399.91
399.813
399.71
399.6
399.486
399.367
399.243
399.116
398.985
398.851
398.715
398.577
398.437
398.296
398.153
398.01
397.865
397.719
397.572
397.424
397.275
397.125
396.975
396.825
396.675
396.526
396.378
396.231
396.087
395.945
395.916
395.892
395.873
395.858
395.846
400
400
400
400
400
399.909
399.813
399.71
399.601
399.488
399.37
399.248
399.123
398.995
398.865
398.732
398.598
398.463
398.327
398.19
398.053
397.914
397.775
397.635
397.494
397.352
397.21
397.068
396.926
396.785
396.645
396.505
396.368
396.233
396.1
396.076
396.056
396.04
396.028
396.02
400
400
400
400
400
399.909
399.813
399.71
399.601
399.488
399.371
399.249
399.125
398.997
398.868
398.736
398.604
398.47
398.335
398.2
398.064
397.928
397.791
397.653
397.514
397.375
397.236
397.096
396.957
396.819
396.681
396.545
396.411
396.279
396.149
396.127
396.108
396.094
396.083
396.077
400
400
400
400
400
399.909
399.812
399.709
399.601
399.487
399.369
399.247
399.123
398.995
398.865
398.734
398.601
398.467
398.333
398.198
398.064
397.928
397.791
397.654
397.515
397.377
397.238
397.099
396.961
396.823
396.686
396.551
396.417
396.286
396.158
396.136
396.118
396.104
396.094
396.089
400
400
400
400
400
399.909
399.812
399.709
399.601
399.487
399.369
399.248
399.123
398.995
398.866
398.735
398.602
398.468
398.334
398.2
398.065
397.93
397.794
397.656
397.518
397.38
397.241
397.103
396.965
396.827
396.691
396.556
396.423
396.292
396.164
396.142
396.124
396.111
396.101
396.096
400
400
400
400
400
399.909
399.812
399.709
399.6
399.487
399.369
399.247
399.122
398.995
398.865
398.734
398.601
398.468
398.334
398.2
398.065
397.93
397.793
397.656
397.518
397.379
397.241
397.103
396.965
396.827
396.691
396.556
396.423
396.292
396.164
396.143
396.125
396.111
396.101