/*--------------------------------*- C++ -*----------------------------------*\
| =========                 |                                                 |
| \\      /  F ield         | OpenFOAM: The Open Source CFD Toolbox           |
|  \\    /   O peration     | Version:  5.0                                   |
|   \\  /    A nd           | Web:      www.OpenFOAM.org                      |
|    \\/     M anipulation  |                                                 |
\*---------------------------------------------------------------------------*/
FoamFile
{
    version     2.0;
    format      ascii;
    class       volScalarField;
    location    "1350/porous";
    object      T;
}
// * * * * * * * * * * * * * * * * * * * * * * * * * * * * * * * * * * * * * //

dimensions      [0 0 0 1 0 0 0];

internalField   nonuniform List<scalar> 
36000
(
400
400
400
400
399.999
399.585
399.209
398.858
398.523
398.201
397.887
397.58
397.278
396.98
396.687
396.396
396.109
395.825
395.543
395.264
394.986
394.71
394.434
394.158
393.881
393.605
393.33
393.057
392.788
392.522
392.261
392.007
391.761
391.527
391.312
391.833
392.186
392.455
392.674
392.859
400
400
400
400
399.999
399.635
399.304
398.997
398.707
398.43
398.163
397.904
397.651
397.403
397.161
396.922
396.688
396.457
396.229
396.003
395.781
395.56
395.339
395.119
394.899
394.68
394.462
394.246
394.033
393.824
393.619
393.419
393.225
393.042
392.868
393.211
393.453
393.639
393.787
393.918
400
400
400
400
399.999
399.642
399.319
399.022
398.743
398.478
398.224
397.979
397.742
397.512
397.287
397.068
396.854
396.644
396.438
396.235
396.036
395.839
395.643
395.447
395.252
395.059
394.867
394.678
394.491
394.309
394.131
393.958
393.792
393.634
393.486
393.803
394.029
394.204
394.344
394.465
400
400
400
400
399.999
399.641
399.319
399.022
398.745
398.482
398.23
397.989
397.755
397.529
397.309
397.095
396.886
396.682
396.483
396.287
396.095
395.906
395.718
395.53
395.343
395.158
394.975
394.794
394.617
394.444
394.275
394.112
393.956
393.808
393.669
393.98
394.204
394.378
394.519
394.639
400
400
400
400
399.999
399.641
399.32
399.023
398.745
398.483
398.232
397.991
397.758
397.532
397.314
397.101
396.894
396.691
396.494
396.301
396.111
395.924
395.739
395.553
395.369
395.186
395.006
394.828
394.653
394.483
394.318
394.158
394.005
393.86
393.724
394.034
394.258
394.431
394.573
394.693
400
400
400
400
399.999
399.641
399.319
399.022
398.744
398.481
398.23
397.989
397.756
397.531
397.312
397.099
396.892
396.691
396.494
396.301
396.113
395.927
395.741
395.557
395.373
395.191
395.011
394.834
394.66
394.491
394.326
394.167
394.016
393.872
393.736
394.045
394.269
394.443
394.585
394.705
400
400
400
400
399.999
399.641
399.319
399.023
398.745
398.482
398.231
397.99
397.757
397.532
397.314
397.102
396.895
396.694
396.497
396.305
396.117
395.932
395.747
395.562
395.378
395.196
395.017
394.84
394.667
394.498
394.333
394.175
394.023
393.879
393.744
394.053
394.277
394.45
394.592
394.712
400
400
400
400
399.999
399.641
399.32
399.023
398.746
398.483
398.232
397.991
397.758
397.534
397.315
397.103
396.897
396.696
396.5
396.308
396.12
395.935
395.75
395.565
395.381
395.199
395.02
394.843
394.67
394.501
394.337
394.178
394.027
393.883
393.748
394.056
394.28
394.454
394.595
394.715
400
400
400
400
399.999
399.642
399.32
399.025
398.748
398.486
398.235
397.994
397.762
397.538
397.32
397.109
396.903
396.702
396.507
396.315
396.127
395.942
395.756
395.572
395.388
395.207
395.027
394.851
394.678
394.509
394.345
394.186
394.034
393.89
393.755
394.063
394.287
394.46
394.602
394.722
400
400
400
400
399.999
399.642
399.321
399.027
398.75
398.488
398.238
397.997
397.766
397.542
397.325
397.113
396.908
396.708
396.513
396.321
396.133
395.947
395.762
395.577
395.394
395.213
395.033
394.857
394.684
394.515
394.351
394.192
394.04
393.896
393.761
394.069
394.292
394.465
394.607
394.727
400
400
400
400
399.999
399.643
399.323
399.029
398.753
398.492
398.242
398.002
397.771
397.547
397.331
397.12
396.916
396.716
396.521
396.329
396.139
395.953
395.769
395.585
395.402
395.221
395.042
394.866
394.693
394.524
394.36
394.201
394.049
393.904
393.768
394.077
394.3
394.473
394.614
394.734
400
400
400
400
399.999
399.643
399.324
399.031
398.756
398.495
398.245
398.006
397.775
397.552
397.335
397.126
396.921
396.722
396.526
396.333
396.143
395.956
395.772
395.589
395.407
395.226
395.048
394.872
394.699
394.53
394.366
394.207
394.054
393.909
393.773
394.081
394.304
394.477
394.618
394.738
400
400
400
400
399.999
399.644
399.326
399.033
398.759
398.498
398.249
398.01
397.779
397.556
397.34
397.131
396.927
396.727
396.53
396.336
396.145
395.958
395.774
395.592
395.411
395.231
395.052
394.877
394.704
394.536
394.371
394.212
394.059
393.914
393.777
394.085
394.308
394.481
394.622
394.742
400
400
400
400
399.999
399.645
399.328
399.035
398.761
398.501
398.252
398.012
397.781
397.558
397.343
397.133
396.929
396.729
396.531
396.336
396.145
395.957
395.774
395.592
395.412
395.233
395.055
394.88
394.707
394.539
394.374
394.215
394.061
393.915
393.776
394.085
394.309
394.482
394.623
394.742
400
400
400
400
399.999
399.646
399.329
399.037
398.763
398.503
398.254
398.014
397.783
397.56
397.344
397.134
396.93
396.73
396.531
396.336
396.144
395.957
395.773
395.592
395.413
395.234
395.057
394.882
394.71
394.541
394.377
394.217
394.063
393.916
393.776
394.085
394.309
394.482
394.623
394.743
400
400
400
400
399.999
399.648
399.332
399.04
398.766
398.506
398.257
398.017
397.785
397.561
397.345
397.135
396.931
396.73
396.532
396.336
396.145
395.957
395.774
395.593
395.414
395.236
395.06
394.885
394.712
394.543
394.378
394.218
394.063
393.914
393.773
394.083
394.307
394.48
394.622
394.742
400
400
400
400
399.999
399.649
399.333
399.042
398.768
398.508
398.258
398.018
397.786
397.561
397.344
397.134
396.929
396.729
396.531
396.336
396.145
395.958
395.775
395.594
395.415
395.237
395.061
394.886
394.713
394.544
394.378
394.217
394.062
393.912
393.77
394.08
394.305
394.478
394.62
394.74
400
400
400
400
399.999
399.65
399.335
399.044
398.77
398.509
398.259
398.019
397.786
397.561
397.343
397.132
396.927
396.728
396.531
396.337
396.146
395.96
395.777
395.596
395.416
395.238
395.061
394.886
394.713
394.544
394.377
394.216
394.06
393.909
393.767
394.077
394.302
394.476
394.617
394.737
400
400
400
400
399.999
399.65
399.336
399.045
398.771
398.51
398.26
398.018
397.785
397.56
397.342
397.13
396.925
396.725
396.53
396.336
396.147
395.961
395.778
395.596
395.415
395.237
395.059
394.884
394.71
394.54
394.373
394.211
394.054
393.903
393.759
394.07
394.295
394.47
394.612
394.732
400
400
400
400
399.999
399.651
399.336
399.045
398.771
398.51
398.26
398.018
397.785
397.559
397.34
397.128
396.923
396.723
396.528
396.336
396.147
395.961
395.777
395.594
395.413
395.233
395.055
394.88
394.706
394.535
394.368
394.205
394.047
393.895
393.752
394.064
394.289
394.464
394.606
394.726
400
400
400
400
399.999
399.651
399.337
399.046
398.771
398.51
398.259
398.018
397.784
397.558
397.338
397.126
396.92
396.72
396.525
396.334
396.145
395.958
395.773
395.589
395.407
395.227
395.049
394.872
394.698
394.527
394.359
394.195
394.037
393.885
393.74
394.053
394.279
394.454
394.597
394.717
400
400
400
400
399.999
399.651
399.337
399.046
398.772
398.511
398.26
398.018
397.784
397.557
397.338
397.125
396.918
396.719
396.524
396.333
396.144
395.956
395.77
395.586
395.403
395.222
395.043
394.867
394.692
394.52
394.352
394.188
394.029
393.876
393.732
394.045
394.272
394.447
394.59
394.711
400
400
400
400
399.999
399.652
399.338
399.047
398.772
398.511
398.259
398.017
397.783
397.556
397.336
397.123
396.916
396.716
396.521
396.33
396.14
395.952
395.765
395.58
395.397
395.216
395.037
394.86
394.685
394.513
394.344
394.179
394.02
393.867
393.722
394.036
394.263
394.439
394.582
394.703
400
400
400
400
399.999
399.652
399.338
399.047
398.773
398.512
398.26
398.018
397.784
397.557
397.337
397.124
396.917
396.717
396.522
396.33
396.14
395.951
395.764
395.579
395.395
395.214
395.035
394.857
394.682
394.509
394.34
394.175
394.016
393.862
393.717
394.031
394.259
394.435
394.578
394.699
400
400
400
400
399.999
399.652
399.339
399.048
398.773
398.512
398.26
398.018
397.783
397.556
397.336
397.123
396.916
396.715
396.52
396.327
396.136
395.947
395.76
395.574
395.39
395.209
395.029
394.851
394.676
394.503
394.334
394.168
394.008
393.854
393.708
394.023
394.251
394.427
394.57
394.692
400
400
400
400
399.999
399.653
399.34
399.049
398.775
398.514
398.262
398.02
397.785
397.558
397.338
397.124
396.917
396.716
396.52
396.327
396.135
395.945
395.757
395.571
395.387
395.205
395.024
394.846
394.67
394.496
394.326
394.159
393.998
393.843
393.696
394.011
394.239
394.415
394.558
394.68
400
400
400
400
399.999
399.653
399.34
399.049
398.774
398.512
398.26
398.017
397.782
397.553
397.332
397.117
396.909
396.706
396.507
396.312
396.118
395.926
395.736
395.548
395.361
395.176
394.993
394.812
394.634
394.458
394.284
394.115
393.95
393.791
393.641
393.958
394.186
394.362
394.505
394.626
400
400
400
400
399.999
399.654
399.34
399.048
398.771
398.507
398.252
398.006
397.767
397.535
397.308
397.088
396.874
396.665
396.46
396.257
396.057
395.857
395.66
395.464
395.27
395.077
394.886
394.696
394.509
394.324
394.142
393.962
393.788
393.62
393.46
393.782
394.012
394.189
394.331
394.453
400
400
400
400
399.999
399.647
399.325
399.022
398.734
398.458
398.19
397.929
397.674
397.424
397.179
396.94
396.706
396.476
396.249
396.023
395.8
395.577
395.356
395.135
394.916
394.698
394.481
394.266
394.052
393.841
393.632
393.425
393.224
393.028
392.842
393.191
393.436
393.624
393.774
393.907
400
400
400
400
399.999
399.599
399.231
398.884
398.551
398.228
397.913
397.603
397.299
396.998
396.703
396.411
396.124
395.841
395.561
395.282
395.004
394.726
394.45
394.174
393.899
393.625
393.352
393.081
392.811
392.543
392.278
392.016
391.759
391.51
391.276
391.807
392.164
392.436
392.657
392.844
400
400
400
400
399.999
399.78
399.53
399.261
398.983
398.699
398.413
398.127
397.841
397.556
397.273
396.99
396.71
396.431
396.153
395.877
395.603
395.329
395.056
394.782
394.508
394.234
393.961
393.69
393.42
393.154
392.891
392.633
392.381
392.14
391.912
392.159
392.394
392.605
392.791
392.953
400
400
400
400
400
399.811
399.6
399.375
399.143
398.907
398.671
398.435
398.201
397.969
397.739
397.511
397.285
397.061
396.84
396.62
396.403
396.187
395.971
395.757
395.542
395.327
395.114
394.902
394.692
394.484
394.28
394.079
393.883
393.694
393.513
393.627
393.749
393.866
393.973
394.074
400
400
400
400
400
399.816
399.611
399.394
399.172
398.949
398.725
398.504
398.286
398.07
397.858
397.649
397.443
397.24
397.04
396.843
396.648
396.456
396.265
396.074
395.885
395.696
395.509
395.323
395.14
394.959
394.781
394.608
394.439
394.277
394.122
394.224
394.332
394.438
394.536
394.628
400
400
400
400
400
399.815
399.611
399.395
399.174
398.952
398.731
398.512
398.297
398.085
397.877
397.673
397.473
397.276
397.082
396.891
396.704
396.519
396.336
396.153
395.972
395.791
395.612
395.435
395.261
395.089
394.921
394.757
394.598
394.445
394.299
394.4
394.507
394.612
394.71
394.801
400
400
400
400
400
399.815
399.611
399.395
399.174
398.953
398.732
398.514
398.3
398.089
397.882
397.679
397.48
397.284
397.092
396.904
396.719
396.536
396.355
396.175
395.996
395.818
395.642
395.468
395.296
395.127
394.962
394.801
394.645
394.496
394.353
394.453
394.561
394.666
394.764
394.855
400
400
400
400
400
399.815
399.61
399.394
399.173
398.951
398.73
398.512
398.297
398.086
397.879
397.676
397.477
397.282
397.091
396.903
396.719
396.537
396.356
396.177
395.998
395.821
395.646
395.472
395.301
395.133
394.969
394.809
394.654
394.506
394.363
394.464
394.572
394.677
394.775
394.866
400
400
400
400
400
399.815
399.61
399.394
399.173
398.951
398.73
398.512
398.298
398.087
397.881
397.678
397.479
397.284
397.093
396.906
396.722
396.541
396.36
396.181
396.003
395.826
395.651
395.478
395.307
395.139
394.975
394.816
394.661
394.513
394.371
394.472
394.579
394.684
394.782
394.873
400
400
400
400
400
399.815
399.61
399.394
399.173
398.951
398.73
398.512
398.298
398.087
397.881
397.678
397.48
397.285
397.094
396.907
396.724
396.542
396.362
396.183
396.004
395.828
395.652
395.479
395.309
395.141
394.978
394.818
394.664
394.515
394.373
394.474
394.582
394.687
394.785
394.876
400
400
400
400
400
399.815
399.611
399.395
399.174
398.953
398.732
398.514
398.3
398.09
397.884
397.682
397.484
397.29
397.1
396.913
396.729
396.548
396.368
396.189
396.011
395.834
395.659
395.486
395.316
395.148
394.985
394.825
394.671
394.522
394.38
394.481
394.588
394.693
394.791
394.882
400
400
400
400
400
399.815
399.611
399.396
399.175
398.954
398.734
398.516
398.303
398.093
397.887
397.685
397.488
397.294
397.104
396.917
396.734
396.552
396.372
396.193
396.015
395.839
395.664
395.491
395.321
395.154
394.99
394.83
394.676
394.527
394.385
394.486
394.593
394.698
394.796
394.887
400
400
400
400
400
399.816
399.612
399.397
399.177
398.956
398.737
398.52
398.306
398.097
397.892
397.691
397.494
397.3
397.111
396.924
396.74
396.558
396.378
396.2
396.022
395.846
395.671
395.499
395.329
395.162
394.998
394.838
394.684
394.535
394.392
394.493
394.6
394.705
394.803
394.894
400
400
400
400
400
399.816
399.613
399.398
399.179
398.958
398.739
398.522
398.309
398.1
397.895
397.694
397.498
397.305
397.115
396.928
396.743
396.561
396.381
396.203
396.026
395.85
395.676
395.503
395.334
395.167
395.003
394.843
394.689
394.539
394.397
394.497
394.605
394.709
394.807
394.898
400
400
400
400
400
399.817
399.614
399.4
399.181
398.96
398.741
398.525
398.312
398.103
397.899
397.699
397.502
397.309
397.119
396.931
396.746
396.563
396.384
396.206
396.029
395.854
395.68
395.508
395.338
395.171
395.008
394.848
394.693
394.544
394.401
394.501
394.609
394.713
394.811
394.902
400
400
400
400
400
399.817
399.615
399.401
399.182
398.962
398.743
398.527
398.314
398.105
397.901
397.701
397.504
397.311
397.12
396.932
396.746
396.563
396.383
396.206
396.03
395.855
395.681
395.51
395.34
395.174
395.01
394.85
394.695
394.545
394.401
394.502
394.609
394.714
394.812
394.902
400
400
400
400
400
399.818
399.615
399.402
399.184
398.964
398.745
398.529
398.316
398.107
397.902
397.702
397.505
397.312
397.121
396.932
396.746
396.563
396.383
396.206
396.03
395.856
395.683
395.512
395.343
395.176
395.012
394.853
394.697
394.546
394.402
394.502
394.61
394.714
394.812
394.903
400
400
400
400
400
399.819
399.617
399.404
399.186
398.966
398.748
398.531
398.318
398.109
397.904
397.703
397.506
397.313
397.121
396.933
396.747
396.564
396.384
396.207
396.032
395.858
395.685
395.514
395.345
395.178
395.014
394.854
394.698
394.546
394.4
394.501
394.608
394.713
394.811
394.902
400
400
400
400
400
399.819
399.618
399.405
399.187
398.967
398.749
398.532
398.318
398.109
397.903
397.702
397.505
397.312
397.121
396.932
396.747
396.564
396.384
396.207
396.032
395.858
395.686
395.515
395.345
395.178
395.014
394.854
394.697
394.545
394.399
394.499
394.606
394.711
394.809
394.9
400
400
400
400
400
399.82
399.619
399.407
399.189
398.969
398.75
398.533
398.319
398.109
397.903
397.702
397.505
397.311
397.121
396.933
396.747
396.565
396.386
396.209
396.034
395.859
395.687
395.515
395.346
395.179
395.014
394.853
394.696
394.543
394.396
394.497
394.604
394.709
394.807
394.898
400
400
400
400
400
399.82
399.619
399.407
399.189
398.97
398.75
398.533
398.319
398.109
397.902
397.7
397.503
397.309
397.119
396.932
396.747
396.566
396.386
396.209
396.033
395.858
395.685
395.514
395.344
395.176
395.011
394.849
394.692
394.538
394.39
394.491
394.598
394.703
394.802
394.893
400
400
400
400
400
399.82
399.62
399.408
399.19
398.97
398.751
398.534
398.319
398.109
397.902
397.7
397.502
397.308
397.118
396.931
396.747
396.566
396.386
396.208
396.032
395.856
395.683
395.511
395.341
395.173
395.007
394.845
394.686
394.533
394.384
394.485
394.593
394.698
394.796
394.888
400
400
400
400
400
399.82
399.62
399.408
399.19
398.97
398.751
398.533
398.319
398.108
397.901
397.698
397.5
397.306
397.116
396.929
396.745
396.563
396.383
396.204
396.027
395.851
395.677
395.505
395.334
395.166
395
394.837
394.678
394.524
394.375
394.475
394.584
394.689
394.788
394.879
400
400
400
400
400
399.82
399.62
399.409
399.191
398.971
398.752
398.534
398.32
398.108
397.901
397.698
397.5
397.306
397.116
396.929
396.745
396.563
396.382
396.203
396.025
395.849
395.674
395.501
395.33
395.161
394.995
394.831
394.672
394.517
394.368
394.469
394.577
394.683
394.782
394.873
400
400
400
400
400
399.82
399.621
399.409
399.191
398.971
398.752
398.534
398.319
398.108
397.9
397.697
397.498
397.304
397.114
396.927
396.743
396.56
396.379
396.199
396.021
395.844
395.669
395.496
395.324
395.155
394.988
394.824
394.664
394.509
394.36
394.461
394.569
394.675
394.774
394.866
400
400
400
400
400
399.821
399.621
399.41
399.192
398.973
398.753
398.536
398.321
398.11
397.902
397.699
397.5
397.306
397.116
396.929
396.744
396.561
396.379
396.199
396.02
395.843
395.668
395.495
395.323
395.153
394.986
394.822
394.662
394.506
394.356
394.457
394.566
394.672
394.771
394.863
400
400
400
400
400
399.821
399.622
399.41
399.193
398.973
398.753
398.536
398.321
398.109
397.902
397.698
397.499
397.305
397.114
396.927
396.741
396.558
396.376
396.195
396.016
395.839
395.664
395.49
395.318
395.148
394.98
394.816
394.655
394.499
394.349
394.45
394.558
394.664
394.763
394.855
400
400
400
400
400
399.821
399.623
399.412
399.195
398.975
398.756
398.539
398.324
398.112
397.904
397.701
397.502
397.307
397.116
396.928
396.742
396.557
396.374
396.193
396.014
395.836
395.66
395.485
395.313
395.142
394.974
394.808
394.646
394.489
394.338
394.439
394.547
394.653
394.752
394.843
400
400
400
400
400
399.822
399.623
399.411
399.194
398.974
398.754
398.536
398.32
398.108
397.899
397.694
397.494
397.297
397.104
396.914
396.726
396.539
396.354
396.171
395.989
395.809
395.63
395.453
395.278
395.104
394.933
394.765
394.6
394.439
394.285
394.386
394.494
394.6
394.698
394.79
400
400
400
400
400
399.822
399.623
399.411
399.192
398.97
398.748
398.527
398.308
398.091
397.878
397.668
397.462
397.26
397.06
396.863
396.668
396.474
396.282
396.091
395.902
395.714
395.527
395.341
395.157
394.975
394.795
394.617
394.443
394.273
394.108
394.21
394.32
394.427
394.525
394.618
400
400
400
400
400
399.817
399.612
399.391
399.162
398.928
398.693
398.457
398.222
397.988
397.757
397.528
397.302
397.079
396.858
396.639
396.421
396.204
395.988
395.773
395.558
395.345
395.132
394.92
394.71
394.501
394.294
394.09
393.888
393.691
393.5
393.614
393.736
393.854
393.962
394.064
400
400
400
400
399.999
399.787
399.543
399.279
399.003
398.721
398.435
398.148
397.861
397.574
397.289
397.006
396.725
396.446
396.17
395.894
395.619
395.345
395.071
394.798
394.525
394.253
393.981
393.711
393.442
393.174
392.908
392.645
392.386
392.133
391.89
392.138
392.376
392.588
392.775
392.939
400
400
400
400
400
399.862
399.703
399.524
399.329
399.12
398.9
398.671
398.436
398.194
397.948
397.699
397.447
397.193
396.938
396.682
396.425
396.167
395.908
395.648
395.387
395.125
394.862
394.6
394.338
394.078
393.82
393.565
393.315
393.071
392.837
392.911
393.005
393.109
393.215
393.313
400
400
400
400
400
399.881
399.748
399.601
399.443
399.275
399.1
398.919
398.734
398.545
398.353
398.159
397.964
397.768
397.572
397.375
397.178
396.981
396.783
396.585
396.386
396.187
395.988
395.79
395.592
395.395
395.2
395.007
394.818
394.633
394.452
394.453
394.468
394.494
394.525
394.56
400
400
400
400
400
399.884
399.755
399.614
399.463
399.305
399.141
398.973
398.802
398.628
398.453
398.277
398.101
397.925
397.749
397.574
397.399
397.225
397.051
396.877
396.704
396.53
396.357
396.184
396.013
395.843
395.676
395.51
395.348
395.189
395.036
395.038
395.051
395.073
395.099
395.13
400
400
400
400
400
399.884
399.755
399.614
399.465
399.308
399.146
398.98
398.811
398.641
398.47
398.298
398.127
397.956
397.786
397.617
397.449
397.282
397.115
396.949
396.783
396.618
396.453
396.289
396.126
395.965
395.807
395.65
395.498
395.349
395.204
395.209
395.224
395.246
395.274
395.306
400
400
400
400
400
399.884
399.755
399.615
399.465
399.309
399.147
398.981
398.814
398.644
398.474
398.304
398.134
397.964
397.796
397.629
397.463
397.298
397.134
396.97
396.806
396.643
396.481
396.319
396.16
396.002
395.846
395.693
395.543
395.397
395.256
395.262
395.277
395.301
395.329
395.362
400
400
400
400
400
399.884
399.755
399.614
399.464
399.307
399.145
398.979
398.811
398.641
398.471
398.301
398.131
397.962
397.794
397.627
397.462
397.297
397.133
396.97
396.807
396.645
396.483
396.323
396.164
396.006
395.851
395.699
395.55
395.406
395.265
395.271
395.288
395.311
395.34
395.374
400
400
400
400
400
399.884
399.755
399.614
399.464
399.307
399.145
398.98
398.812
398.642
398.472
398.302
398.132
397.963
397.795
397.629
397.464
397.3
397.136
396.973
396.81
396.648
396.487
396.327
396.168
396.011
395.857
395.705
395.556
395.412
395.272
395.278
395.294
395.318
395.347
395.381
400
400
400
400
400
399.884
399.755
399.614
399.464
399.307
399.145
398.979
398.811
398.641
398.471
398.301
398.131
397.963
397.795
397.629
397.464
397.3
397.137
396.973
396.811
396.649
396.487
396.327
396.169
396.012
395.857
395.706
395.557
395.413
395.273
395.279
395.295
395.319
395.348
395.382
400
400
400
400
400
399.884
399.755
399.615
399.465
399.308
399.146
398.981
398.813
398.643
398.474
398.304
398.135
397.966
397.799
397.633
397.468
397.304
397.141
396.978
396.815
396.654
396.493
396.333
396.174
396.018
395.863
395.712
395.563
395.419
395.278
395.285
395.301
395.325
395.354
395.388
400
400
400
400
400
399.884
399.755
399.615
399.466
399.309
399.147
398.982
398.814
398.645
398.475
398.306
398.137
397.968
397.801
397.636
397.471
397.307
397.144
396.981
396.818
396.657
396.496
396.336
396.178
396.021
395.867
395.715
395.567
395.422
395.282
395.289
395.305
395.329
395.358
395.391
400
400
400
400
400
399.885
399.756
399.616
399.467
399.31
399.149
398.984
398.816
398.648
398.479
398.309
398.141
397.973
397.807
397.641
397.476
397.312
397.149
396.986
396.824
396.663
396.502
396.342
396.184
396.028
395.874
395.722
395.574
395.429
395.289
395.295
395.312
395.335
395.364
395.398
400
400
400
400
400
399.885
399.756
399.617
399.468
399.312
399.15
398.985
398.818
398.65
398.481
398.312
398.144
397.976
397.81
397.643
397.478
397.314
397.151
396.989
396.827
396.666
396.505
396.346
396.188
396.032
395.877
395.726
395.577
395.433
395.292
395.299
395.315
395.339
395.368
395.402
400
400
400
400
400
399.885
399.757
399.618
399.469
399.313
399.152
398.987
398.82
398.652
398.484
398.315
398.147
397.98
397.813
397.646
397.481
397.316
397.154
396.991
396.83
396.669
396.509
396.349
396.192
396.036
395.881
395.73
395.581
395.437
395.296
395.302
395.319
395.343
395.371
395.405
400
400
400
400
400
399.885
399.758
399.618
399.47
399.314
399.153
398.989
398.822
398.654
398.485
398.317
398.149
397.981
397.814
397.647
397.481
397.317
397.154
396.992
396.83
396.669
396.51
396.351
396.193
396.037
395.883
395.732
395.583
395.438
395.297
395.303
395.319
395.343
395.372
395.406
400
400
400
400
400
399.886
399.758
399.619
399.471
399.315
399.155
398.99
398.823
398.655
398.486
398.318
398.15
397.982
397.815
397.648
397.482
397.317
397.154
396.992
396.831
396.67
396.511
396.352
396.195
396.039
395.885
395.733
395.585
395.439
395.298
395.304
395.32
395.344
395.373
395.407
400
400
400
400
400
399.886
399.759
399.621
399.473
399.317
399.156
398.992
398.825
398.656
398.487
398.319
398.151
397.983
397.815
397.648
397.482
397.318
397.155
396.993
396.832
396.672
396.512
396.354
396.196
396.04
395.886
395.735
395.586
395.44
395.297
395.303
395.32
395.343
395.372
395.406
400
400
400
400
400
399.887
399.76
399.621
399.473
399.318
399.157
398.992
398.825
398.657
398.487
398.319
398.15
397.982
397.815
397.648
397.482
397.318
397.155
396.993
396.832
396.672
396.513
396.354
396.197
396.041
395.887
395.735
395.585
395.439
395.296
395.302
395.318
395.342
395.371
395.405
400
400
400
400
400
399.887
399.76
399.622
399.474
399.319
399.158
398.993
398.826
398.657
398.488
398.319
398.15
397.982
397.815
397.649
397.483
397.319
397.156
396.994
396.833
396.673
396.514
396.355
396.198
396.042
395.887
395.735
395.585
395.438
395.295
395.301
395.317
395.341
395.37
395.403
400
400
400
400
400
399.887
399.761
399.623
399.475
399.319
399.159
398.994
398.826
398.657
398.487
398.318
398.149
397.981
397.814
397.648
397.483
397.319
397.156
396.994
396.833
396.673
396.513
396.354
396.196
396.04
395.885
395.732
395.582
395.435
395.291
395.297
395.313
395.336
395.365
395.399
400
400
400
400
400
399.887
399.761
399.623
399.475
399.32
399.159
398.994
398.827
398.657
398.488
398.318
398.149
397.981
397.814
397.648
397.483
397.319
397.156
396.994
396.833
396.672
396.512
396.353
396.195
396.038
395.882
395.729
395.579
395.431
395.287
395.293
395.309
395.332
395.361
395.395
400
400
400
400
400
399.887
399.761
399.623
399.475
399.32
399.159
398.994
398.826
398.657
398.487
398.317
398.147
397.979
397.812
397.647
397.482
397.318
397.154
396.992
396.829
396.668
396.508
396.348
396.19
396.033
395.877
395.723
395.572
395.424
395.279
395.285
395.301
395.325
395.354
395.387
400
400
400
400
400
399.887
399.761
399.623
399.476
399.321
399.16
398.995
398.827
398.658
398.488
398.318
398.148
397.98
397.813
397.647
397.482
397.318
397.154
396.991
396.829
396.667
396.506
396.347
396.188
396.03
395.874
395.72
395.569
395.42
395.275
395.281
395.297
395.32
395.349
395.383
400
400
400
400
400
399.887
399.761
399.624
399.476
399.321
399.16
398.995
398.827
398.657
398.487
398.317
398.147
397.979
397.812
397.646
397.481
397.316
397.152
396.989
396.826
396.664
396.503
396.343
396.183
396.025
395.869
395.715
395.563
395.414
395.269
395.275
395.29
395.314
395.343
395.376
400
400
400
400
400
399.888
399.762
399.624
399.477
399.322
399.161
398.996
398.829
398.659
398.489
398.319
398.15
397.981
397.814
397.648
397.483
397.318
397.154
396.99
396.827
396.665
396.504
396.343
396.184
396.026
395.869
395.714
395.562
395.413
395.267
395.273
395.289
395.312
395.341
395.374
400
400
400
400
400
399.888
399.762
399.624
399.477
399.322
399.161
398.997
398.829
398.659
398.489
398.319
398.149
397.981
397.813
397.647
397.481
397.316
397.151
396.987
396.824
396.662
396.5
396.339
396.18
396.021
395.864
395.709
395.556
395.407
395.261
395.266
395.282
395.305
395.334
395.367
400
400
400
400
400
399.888
399.763
399.626
399.479
399.324
399.164
398.999
398.832
398.662
398.492
398.322
398.152
397.983
397.816
397.649
397.483
397.317
397.152
396.987
396.823
396.66
396.498
396.336
396.176
396.017
395.859
395.703
395.549
395.399
395.251
395.257
395.272
395.295
395.323
395.356
400
400
400
400
400
399.888
399.763
399.625
399.478
399.323
399.162
398.997
398.829
398.658
398.487
398.316
398.145
397.975
397.805
397.636
397.468
397.3
397.133
396.966
396.8
396.634
396.47
396.306
396.143
395.981
395.82
395.661
395.504
395.35
395.2
395.204
395.218
395.241
395.268
395.3
400
400
400
400
400
399.888
399.763
399.625
399.477
399.32
399.157
398.99
398.818
398.645
398.469
398.293
398.117
397.942
397.766
397.591
397.416
397.242
397.067
396.893
396.72
396.546
396.373
396.201
396.029
395.859
395.689
395.521
395.355
395.192
395.032
395.033
395.046
395.067
395.094
395.125
400
400
400
400
400
399.885
399.756
399.611
399.455
399.289
399.115
398.935
398.75
398.56
398.368
398.174
397.979
397.784
397.588
397.391
397.194
396.996
396.798
396.6
396.401
396.203
396.005
395.806
395.608
395.411
395.215
395.02
394.826
394.636
394.448
394.448
394.463
394.488
394.519
394.554
400
400
400
400
400
399.867
399.711
399.536
399.343
399.135
398.916
398.688
398.451
398.209
397.963
397.713
397.461
397.208
396.953
396.697
396.44
396.182
395.923
395.663
395.402
395.141
394.88
394.618
394.357
394.097
393.837
393.579
393.323
393.071
392.826
392.899
392.993
393.097
393.203
393.302
400
400
400
400
400
399.894
399.777
399.648
399.506
399.354
399.192
399.02
398.84
398.651
398.455
398.253
398.045
397.833
397.616
397.395
397.17
396.943
396.712
396.479
396.243
396.004
395.763
395.521
395.278
395.035
394.792
394.551
394.312
394.077
393.848
393.845
393.855
393.877
393.907
393.934
400
400
400
400
400
399.908
399.809
399.702
399.588
399.466
399.339
399.205
399.067
398.923
398.776
398.624
398.469
398.311
398.151
397.988
397.823
397.656
397.488
397.317
397.145
396.971
396.797
396.621
396.445
396.269
396.093
395.918
395.745
395.574
395.405
395.368
395.338
395.314
395.296
395.28
400
400
400
400
400
399.91
399.814
399.711
399.602
399.488
399.368
399.245
399.117
398.986
398.852
398.716
398.578
398.437
398.295
398.152
398.008
397.863
397.717
397.569
397.42
397.271
397.121
396.971
396.821
396.671
396.522
396.374
396.227
396.083
395.942
395.913
395.889
395.87
395.854
395.843
400
400
400
400
400
399.91
399.814
399.712
399.603
399.49
399.372
399.25
399.125
398.997
398.866
398.733
398.599
398.463
398.327
398.189
398.051
397.912
397.772
397.631
397.49
397.348
397.206
397.064
396.922
396.78
396.64
396.501
396.364
396.229
396.096
396.072
396.052
396.036
396.024
396.016
400
400
400
400
400
399.91
399.814
399.712
399.604
399.49
399.373
399.251
399.127
398.999
398.869
398.738
398.604
398.47
398.335
398.199
398.062
397.925
397.788
397.649
397.51
397.371
397.231
397.091
396.952
396.814
396.676
396.54
396.406
396.274
396.145
396.122
396.104
396.089
396.078
396.072
400
400
400
400
400
399.91
399.814
399.711
399.603
399.489
399.371
399.25
399.125
398.997
398.867
398.735
398.602
398.468
398.333
398.197
398.061
397.925
397.787
397.649
397.511
397.372
397.233
397.094
396.955
396.817
396.681
396.545
396.412
396.281
396.153
396.131
396.113
396.099
396.089
396.084
400
400
400
400
400
399.91
399.814
399.711
399.603
399.49
399.372
399.25
399.125
398.998
398.868
398.736
398.603
398.469
398.334
398.199
398.063
397.927
397.79
397.652
397.513
397.375
397.236
397.097
396.959
396.821
396.685
396.55
396.417
396.286
396.158
396.137
396.119
396.105
396.095
396.09
400
400
400
400
400
399.91
399.814
399.712
399.603
399.49
399.372
399.25
399.125
398.997
398.867
398.736
398.602
398.468
398.333
398.198
398.062
397.926
397.789
397.651
397.513
397.374
397.235
397.097
396.959
396.821
396.685
396.55
396.417
396.286
396.158
396.137