/*--------------------------------*- C++ -*----------------------------------*\
| =========                 |                                                 |
| \\      /  F ield         | OpenFOAM: The Open Source CFD Toolbox           |
|  \\    /   O peration     | Version:  5.0                                   |
|   \\  /    A nd           | Web:      www.OpenFOAM.org                      |
|    \\/     M anipulation  |                                                 |
\*---------------------------------------------------------------------------*/
FoamFile
{
    version     2.0;
    format      ascii;
    class       volScalarField;
    location    "400/air";
    object      alphat;
}
// * * * * * * * * * * * * * * * * * * * * * * * * * * * * * * * * * * * * * //

dimensions      [1 -1 -1 0 0 0 0];

internalField   nonuniform List<scalar> 
243000
(
0.000194856
0.000192432
0.000186495
0.000179054
0.000170629
0.000161632
0.000152349
0.000143021
0.000133879
0.000125232
0.000117524
0.000111063
0.000105048
9.93793e-05
9.27861e-05
9.20024e-05
0.000117364
0.000153379
0.00016618
0.000170254
0.00016927
0.000166036
0.000161129
0.00015536
0.000149246
0.000143641
0.000141497
0.000142771
0.000148781
0.00015922
0.000909415
0.000919034
0.000910839
0.000895153
0.000875541
0.000852837
0.000827392
0.000799671
0.000770367
0.000740799
0.000712727
0.00068801
0.000662914
0.000638764
0.000606683
0.000627054
0.000820988
0.00102496
0.00109167
0.00110144
0.00107613
0.00103667
0.000986094
0.000931816
0.000876885
0.00082638
0.000788644
0.000765108
0.000762896
0.000772526
0.00100968
0.00101912
0.0010086
0.00099016
0.000967511
0.000941748
0.00091339
0.000883076
0.000851568
0.000820347
0.000791279
0.000765836
0.000739084
0.000712771
0.000677913
0.00071105
0.000933567
0.00114105
0.00121232
0.00122563
0.00120171
0.00116196
0.00111052
0.00105516
0.000999323
0.000947918
0.000907999
0.000881294
0.000877124
0.000887921
0.00107812
0.0010871
0.00107631
0.00105755
0.0010342
0.00100745
0.000977967
0.000946528
0.00091398
0.00088202
0.000852552
0.000826649
0.00079843
0.000769467
0.000731406
0.000773443
0.00101173
0.00121597
0.00128919
0.00130568
0.00128433
0.001246
0.00119577
0.00114154
0.0010869
0.00103663
0.000996648
0.000969202
0.000963417
0.000975273
0.0011285
0.00113645
0.001126
0.00110779
0.00108475
0.00105804
0.00102838
0.000996658
0.000963807
0.000931646
0.000902
0.000875574
0.000845841
0.000813905
0.000772224
0.000820682
0.00106686
0.00126505
0.00133901
0.00135829
0.00133999
0.00130396
0.00125602
0.00120396
0.00115157
0.0011035
0.00106466
0.00103788
0.00103085
0.00104346
0.00116712
0.00117383
0.00116389
0.00114651
0.00112421
0.00109803
0.0010687
0.00103718
0.00100445
0.000972376
0.000942581
0.000915465
0.00088406
0.000848766
0.000803228
0.000856356
0.00110506
0.00129591
0.00137042
0.00139206
0.00137695
0.0013437
0.00129862
0.0012493
0.00119971
0.00115436
0.00111743
0.00109207
0.0010844
0.00109739
0.00119742
0.00120293
0.00119348
0.00117702
0.00115562
0.00113019
0.00110145
0.00107038
0.001038
0.00100612
0.00097612
0.000948103
0.000914825
0.000875773
0.000826568
0.000882993
0.0011302
0.00131302
0.00138836
0.00141214
0.00140016
0.00136998
0.00132811
0.00128186
0.00123534
0.00119298
0.00115844
0.00113495
0.00112725
0.00114037
0.00122148
0.00122591
0.00121694
0.00120137
0.0011809
0.00115629
0.00112825
0.00109773
0.0010658
0.00103412
0.00100382
0.000974678
0.000939338
0.000896164
0.000845338
0.000904218
0.0011448
0.00132024
0.00139565
0.00142193
0.00141283
0.00138595
0.00134755
0.0013046
0.00126129
0.00122204
0.00119016
0.00116882
0.0011616
0.00117472
0.00124061
0.00124414
0.00123561
0.00122089
0.00120131
0.00117752
0.00115018
0.00112025
0.00108877
0.00105726
0.00102652
0.000996062
0.000958378
0.000910951
0.000862844
0.000924232
0.00115184
0.00132109
0.00139626
0.00142371
0.00141712
0.00139394
0.00135938
0.0013199
0.0012797
0.00124352
0.00121445
0.00119542
0.00118907
0.00120215
0.00125567
0.00125846
0.00125037
0.00123646
0.00121769
0.00119466
0.00116798
0.00113862
0.00110756
0.00107614
0.00104483
0.00101288
0.000972551
0.000921152
0.000878457
0.000942068
0.00115363
0.0013154
0.00138977
0.00141915
0.00141463
0.00139412
0.00136368
0.00132842
0.00129212
0.00125899
0.00123271
0.00121606
0.00121084
0.00122393
0.00126724
0.00126944
0.00126179
0.00124862
0.0012306
0.00120824
0.00118217
0.00115332
0.00112262
0.00109122
0.00105924
0.00102555
0.000982398
0.000928554
0.000892374
0.000957776
0.00115195
0.00130424
0.00137822
0.00140948
0.00140689
0.00138928
0.00136191
0.00133064
0.00129877
0.00126943
0.00124597
0.00123175
0.00122783
0.00124096
0.00127565
0.0012774
0.00127021
0.00125771
0.00124032
0.00121854
0.00119302
0.00116466
0.00113429
0.00110283
0.00107002
0.00103436
0.00098841
0.000936183
0.000905127
0.000971577
0.00115032
0.00128974
0.00136265
0.00139561
0.00139487
0.00138003
0.0013559
0.00132798
0.00130012
0.00127505
0.00125496
0.00124319
0.00124068
0.00125387
0.00128109
0.00128251
0.00127574
0.00126388
0.00124709
0.00122585
0.00120079
0.00117279
0.00114264
0.00111105
0.00107729
0.00103961
0.000991707
0.000943431
0.000916947
0.000983622
0.00114828
0.00127582
0.00134442
0.00137849
0.00137934
0.00136707
0.00134611
0.00132156
0.00129727
0.00127605
0.0012599
0.00125073
0.00124984
0.0012631
0.00128373
0.00128484
0.00127857
0.00126734
0.00125112
0.00123037
0.00120575
0.00117809
0.00114811
0.00111627
0.00108153
0.00104214
0.000995092
0.000950411
0.000927976
0.00099404
0.00114568
0.00126306
0.00132822
0.0013608
0.00136171
0.00135128
0.00133314
0.00131177
0.00129101
0.00127327
0.0012607
0.00125459
0.00125532
0.00126886
0.00128333
0.00128462
0.00127894
0.0012683
0.00125257
0.00123227
0.00120804
0.00118073
0.00115092
0.00111883
0.00108321
0.00104299
0.000998761
0.000957184
0.000938268
0.00100295
0.0011425
0.00125109
0.00131313
0.00134454
0.00134571
0.00133609
0.0013192
0.00129929
0.00128174
0.00126732
0.00125806
0.00125485
0.00125722
0.00127139
0.00128024
0.00128164
0.00127662
0.00126668
0.00125153
0.00123175
0.00120799
0.00118105
0.00115141
0.00111916
0.00108313
0.00104446
0.00100258
0.000963761
0.000947854
0.00101044
0.00113877
0.00123961
0.0012988
0.00132926
0.00133083
0.00132197
0.00130636
0.00128817
0.00127177
0.00125849
0.00125217
0.00125158
0.00125579
0.00127085
0.00127414
0.00127584
0.00127155
0.00126232
0.00124778
0.00122852
0.00120529
0.00117885
0.00114952
0.00111802
0.00108352
0.00104633
0.00100652
0.00097016
0.000956762
0.00101661
0.00113448
0.00122841
0.00128495
0.00131462
0.00131665
0.00130856
0.00129424
0.00127767
0.00126253
0.0012504
0.00124427
0.00124499
0.00125073
0.00126685
0.00126501
0.00126719
0.00126378
0.00125532
0.00124137
0.00122272
0.00120053
0.00117542
0.00114751
0.0011173
0.00108421
0.00104845
0.00101052
0.000976357
0.000964995
0.00102152
0.00112949
0.00121725
0.00127134
0.00130035
0.00130289
0.00129558
0.00128252
0.0012675
0.00125365
0.00124266
0.00123689
0.00123706
0.00124241
0.00125939
0.00125433
0.00125714
0.00125487
0.00124733
0.00123436
0.00121691
0.001196
0.0011722
0.00114569
0.00111679
0.00108506
0.00105071
0.00101454
0.000982348
0.000972553
0.00102527
0.00112395
0.001206
0.00125778
0.0012862
0.00128929
0.0012828
0.00127099
0.00125745
0.00124489
0.00123501
0.00122969
0.00122953
0.00123399
0.00124885
0.00124427
0.0012475
0.00124617
0.00123947
0.00122745
0.00121117
0.0011915
0.00116899
0.00114388
0.00111633
0.00108596
0.00105304
0.00101856
0.000988128
0.000979429
0.00102786
0.00111781
0.0011945
0.00124408
0.00127194
0.00127559
0.00126995
0.00125941
0.00124735
0.00123609
0.00122726
0.00122244
0.00122207
0.00122582
0.00123854
0.00123438
0.00123789
0.00123738
0.00123148
0.00122041
0.00120526
0.00118683
0.00116564
0.00114196
0.00111581
0.00108686
0.0010554
0.00102256
0.0009937
0.000985639
0.00102944
0.00111103
0.00118262
0.00123009
0.0012574
0.0012616
0.00125682
0.00124759
0.00123697
0.00122699
0.00121919
0.00121489
0.0012144
0.00121751
0.00122855
0.00122427
0.00122803
0.00122826
0.00122317
0.00121305
0.00119902
0.00118188
0.00116208
0.00113985
0.00111517
0.00108772
0.00105779
0.00102654
0.000999086
0.000991219
0.00103024
0.00110363
0.00117027
0.00121566
0.00124239
0.00124715
0.00124324
0.00123535
0.00122614
0.00121741
0.00121059
0.00120678
0.00120622
0.00120879
0.00121836
0.00121363
0.00121765
0.0012186
0.00121435
0.00120522
0.00119236
0.00117655
0.00115823
0.00113753
0.0011144
0.00108854
0.00106022
0.00103055
0.00100437
0.00099626
0.00103004
0.00109563
0.00115741
0.00120072
0.00122677
0.00123209
0.00122908
0.00122252
0.00121468
0.00120716
0.00120126
0.00119792
0.00119731
0.00119939
0.00120759
0.00120217
0.00120657
0.00120826
0.00120491
0.00119685
0.00118522
0.00117083
0.00115407
0.001135
0.00111353
0.00108942
0.00106281
0.00103475
0.00100975
0.00100104
0.00102936
0.00108727
0.00114419
0.00118531
0.00121056
0.0012164
0.00121426
0.00120896
0.00120242
0.00119608
0.00119106
0.00118815
0.00118747
0.0011891
0.00119602
0.00118973
0.00119466
0.00119713
0.00119476
0.00118786
0.00117759
0.00116475
0.00114967
0.00113239
0.00111283
0.00109073
0.00106596
0.0010397
0.00101594
0.00100639
0.00102911
0.0010793
0.00113115
0.00116987
0.00119408
0.00120033
0.00119895
0.00119478
0.00118946
0.00118421
0.00118
0.00117744
0.00117668
0.00117782
0.00118352
0.00117626
0.00118188
0.0011852
0.00118394
0.00117836
0.00116968
0.00115866
0.0011455
0.00113059
0.00111347
0.00109364
0.00107132
0.00104741
0.00102528
0.0010149
0.00103184
0.00107402
0.00112024
0.00115601
0.00117867
0.00118498
0.00118404
0.00118069
0.00117631
0.00117193
0.00116832
0.00116597
0.00116504
0.00116563
0.00117012
0.00116241
0.00116891
0.00117325
0.0011734
0.0011695
0.00116309
0.00115471
0.00114472
0.00113298
0.00111935
0.00110336
0.001085
0.00106486
0.00104544
0.00103464
0.00104554
0.00107865
0.00111778
0.00114922
0.00116907
0.00117448
0.00117324
0.00116987
0.00116565
0.0011614
0.00115785
0.00115515
0.00115365
0.00115346
0.00115658
0.00115292
0.001161
0.00116744
0.00117017
0.00116985
0.00116796
0.00116482
0.00116067
0.00115525
0.00114827
0.00113932
0.00112808
0.00111447
0.00109985
0.00108956
0.00109388
0.00111551
0.00114401
0.00116774
0.00118202
0.00118448
0.00118103
0.0011757
0.00116964
0.00116358
0.00115797
0.00115328
0.0011496
0.00114729
0.00114803
0.00119161
0.00120293
0.0012141
0.00122377
0.0012324
0.00124092
0.00124832
0.00125473
0.00125966
0.0012627
0.00126396
0.0012625
0.00125731
0.00124869
0.00123951
0.00123651
0.00124383
0.00125704
0.00126822
0.00127314
0.00126989
0.00126253
0.00125356
0.00124362
0.0012332
0.00122272
0.00121264
0.001203
0.00119459
0.00118927
0.00151177
0.00152255
0.00153358
0.00154443
0.00155722
0.00156996
0.00157756
0.00158261
0.00158518
0.00158619
0.00158742
0.00158587
0.00158012
0.00157122
0.00156085
0.00155313
0.00154931
0.00155033
0.00155193
0.00155295
0.00155231
0.0015519
0.00155151
0.00155009
0.00154724
0.00154274
0.0015368
0.00152933
0.00152113
0.00151302
0.000240292
0.000240592
0.000233732
0.000224002
0.000212551
0.000200123
0.00018713
0.000173926
0.000160902
0.000148653
0.000138039
0.000129727
0.000122954
0.000122517
0.000132004
0.000160663
0.000187885
0.000214036
0.000227119
0.00023213
0.00023166
0.000228611
0.000223917
0.00021858
0.000213221
0.00020844
0.000205278
0.000202942
0.000204234
0.000207049
0.00112149
0.00114501
0.00104952
0.000941867
0.000850263
0.000775366
0.000713425
0.00066265
0.000621839
0.000590173
0.000558653
0.000533938
0.000524276
0.000555754
0.000626866
0.00077418
0.000899859
0.00104384
0.0011211
0.00113542
0.00110463
0.00106433
0.00101668
0.000970213
0.000924707
0.000886725
0.000860511
0.000832929
0.000797985
0.000787318
0.00191796
0.00204968
0.00196754
0.00181684
0.00166213
0.00152308
0.00140257
0.0013022
0.0012209
0.00115456
0.00108728
0.00102977
0.000995579
0.00103449
0.00115843
0.00141429
0.00165731
0.00191234
0.00206165
0.0021049
0.00205712
0.00198357
0.00189429
0.00180204
0.00171826
0.00165112
0.00159964
0.00154986
0.00148964
0.00148933
0.00259373
0.00281316
0.00278036
0.00262969
0.00244238
0.00225671
0.00208688
0.00194232
0.0018169
0.00171215
0.00160762
0.00151602
0.00145214
0.00149245
0.00165435
0.00198775
0.00232914
0.00266187
0.0028684
0.0029463
0.00289877
0.00280641
0.00268952
0.00257071
0.00246095
0.00236557
0.00229434
0.00223067
0.00216268
0.00218034
0.00318654
0.00346106
0.0034877
0.00335492
0.0031544
0.00293789
0.00272989
0.00254733
0.00238107
0.00224031
0.00210077
0.00197725
0.00188393
0.00192221
0.00210793
0.00249312
0.00290595
0.00329487
0.00354269
0.00365399
0.00361897
0.00352056
0.00338935
0.00325758
0.00313338
0.00302727
0.00293968
0.00286511
0.00279354
0.00283576
0.00371784
0.00403119
0.0041072
0.00399674
0.00379339
0.00355737
0.00332116
0.00310515
0.0029064
0.00273222
0.00256099
0.0024091
0.00228895
0.00232086
0.00251995
0.00293506
0.00339508
0.00382143
0.0041012
0.00424113
0.00422647
0.00413293
0.00399884
0.0038617
0.00373384
0.0036257
0.00353979
0.00346289
0.00339165
0.00345628
0.00420704
0.00454188
0.00465015
0.00456239
0.00436152
0.0041138
0.00385724
0.00361384
0.00338902
0.00318541
0.00298628
0.00280981
0.00266604
0.00268713
0.00288641
0.00331765
0.00380514
0.00425026
0.00455997
0.00472309
0.004732
0.00465348
0.00452732
0.00439131
0.00426762
0.00416279
0.00408324
0.00401673
0.00395416
0.00403488
0.00465982
0.00500167
0.00512787
0.00505851
0.00486212
0.0046081
0.00433735
0.00407279
0.00382725
0.00359894
0.00337616
0.0031784
0.0030137
0.00302635
0.00320608
0.00364312
0.00414392
0.00459627
0.00492719
0.00511535
0.00514492
0.00509166
0.00498405
0.00485874
0.0047393
0.0046448
0.00457398
0.00452086
0.00447137
0.00456389
0.00507692
0.00541437
0.00554725
0.00549025
0.0052984
0.00504195
0.00476187
0.00448187
0.00422008
0.00397276
0.00373048
0.00351439
0.00333396
0.00332713
0.00347894
0.00391138
0.00442665
0.00489697
0.00523149
0.00542913
0.00546566
0.00543758
0.00537595
0.00527415
0.005163
0.00507757
0.00501759
0.0049784
0.00494366
0.00504499
0.00545769
0.00578109
0.00591099
0.00585934
0.00567321
0.00541722
0.00513185
0.00484162
0.00456655
0.00430606
0.00404921
0.00381725
0.00362281
0.00359279
0.00371279
0.00413445
0.00467063
0.00511558
0.00545668
0.00567533
0.00572275
0.00571281
0.00566153
0.00561093
0.00554035
0.00546924
0.00541918
0.00539308
0.00537217
0.00547824
0.0058001
0.00610144
0.0062208
0.00616944
0.00598936
0.00573603
0.00544898
0.00515353
0.00486758
0.00459578
0.00433024
0.00408719
0.00387975
0.00382363
0.0039213
0.00432579
0.00484979
0.00528477
0.00562638
0.00586131
0.0059213
0.00593194
0.00590211
0.00586623
0.0058416
0.00581111
0.00578355
0.00576873
0.00575781
0.005863
0.00609986
0.00637414
0.00647811
0.00642402
0.00624935
0.00600043
0.00571497
0.00541841
0.00512851
0.00484987
0.0045775
0.00432548
0.00410764
0.00402707
0.00410888
0.00448843
0.00498925
0.0054144
0.00574963
0.00599596
0.00606827
0.00609909
0.00609553
0.00607915
0.00607387
0.00608579
0.0060954
0.00610511
0.00610107
0.00619853
0.00635506
0.00659674
0.00668366
0.00662538
0.00645511
0.00621216
0.00593141
0.00563799
0.0053484
0.00506742
0.00479137
0.00453443
0.00431123
0.00420765
0.00427473
0.00462272
0.00509048
0.00550381
0.00583718
0.00608792
0.0061703
0.00621888
0.00624038
0.00625089
0.00626402
0.00629657
0.00634286
0.00638743
0.00640593
0.00648631
0.00656838
0.00676893
0.00683692
0.00677411
0.00660744
0.00637199
0.00609929
0.00581415
0.00553039
0.00525132
0.00497495
0.00471742
0.0044861
0.00436407
0.00441664
0.00472697
0.0051532
0.00554431
0.00586726
0.00613693
0.00623395
0.00629551
0.00633883
0.00637473
0.00641371
0.00646381
0.00652915
0.00660222
0.00665607
0.00672597
0.00673916
0.00689932
0.00694439
0.00687646
0.00671436
0.00648855
0.0062266
0.00595143
0.00567908
0.005406
0.00513469
0.0048765
0.00463116
0.00449462
0.00453056
0.00479943
0.00517782
0.00553784
0.00584475
0.00612285
0.00623447
0.00632115
0.00639047
0.00645094
0.00651366
0.00658775
0.00666923
0.00675742
0.00683032
0.00690628
0.00687128
0.00699237
0.00701386
0.00694038
0.00678402
0.00657056
0.00632328
0.00606225
0.00580284
0.00553994
0.00526899
0.00499808
0.00474608
0.0045967
0.00461425
0.00483866
0.00516565
0.00548861
0.00577445
0.00605073
0.00617611
0.00628616
0.00638086
0.0064668
0.0065575
0.00665782
0.00676191
0.00686351
0.00694769
0.00702494
0.00695071
0.00704269
0.00704935
0.00696995
0.00681899
0.00661979
0.00638951
0.00614406
0.00589521
0.00563477
0.00535921
0.0050827
0.00483056
0.0046748
0.00466664
0.00484392
0.00511948
0.00540209
0.00566175
0.00592591
0.00606312
0.00619336
0.00631207
0.00642266
0.00653746
0.00666162
0.00679406
0.00691602
0.00701568
0.00709379
0.00697592
0.00704365
0.00703914
0.00696563
0.006825
0.00664221
0.00642478
0.00619046
0.00594684
0.00568749
0.00540939
0.00513234
0.0048837
0.00471705
0.00468602
0.00481404
0.00503026
0.00526862
0.00550741
0.00575784
0.00590873
0.00605514
0.00619414
0.00632568
0.00646041
0.00660417
0.00675735
0.00690538
0.00702582
0.00711099
0.0069496
0.0069865
0.00697706
0.00691134
0.00678056
0.00661014
0.00640768
0.00618666
0.00595035
0.00569672
0.00542136
0.00514812
0.00490469
0.00472618
0.00467175
0.00475595
0.00491849
0.00511445
0.00532392
0.00555134
0.0057175
0.00589186
0.00604832
0.00619548
0.00634357
0.00650089
0.00666696
0.00683009
0.00697069
0.00708441
0.00683025
0.006856
0.00684727
0.00678904
0.00667861
0.00652488
0.00633994
0.00613284
0.00590945
0.00566498
0.00539632
0.00512995
0.00489198
0.00470079
0.00462322
0.00466513
0.00477851
0.00493408
0.00511425
0.00531525
0.00548512
0.00567267
0.00585868
0.00603364
0.00620016
0.00636583
0.00653696
0.00670506
0.00685513
0.00698753
0.00664739
0.00666547
0.00666139
0.0066135
0.00652509
0.00638916
0.00622204
0.00603515
0.00582697
0.00559317
0.00533342
0.00507559
0.00484153
0.004639
0.00453925
0.0045424
0.00461201
0.00473122
0.00488278
0.00505721
0.00522609
0.00542121
0.00562017
0.00581146
0.00599568
0.00617447
0.00635209
0.00652228
0.00667344
0.00680836
0.00640728
0.00642714
0.00642863
0.00639732
0.00632314
0.00620909
0.00606502
0.00589714
0.00570236
0.00547829
0.00522753
0.00497801
0.00474538
0.00453603
0.00441648
0.00438786
0.00442383
0.00450849
0.00463241
0.00478175
0.00494704
0.00514567
0.00535435
0.00555492
0.00574721
0.00593071
0.00610793
0.00627469
0.00642589
0.00655927
0.00612522
0.00614911
0.00616363
0.00614758
0.00608791
0.00599307
0.00586797
0.00571498
0.0055295
0.00531189
0.00506747
0.00482332
0.00459131
0.00438131
0.00424707
0.00419633
0.00420867
0.00426615
0.00436306
0.00448968
0.00465253
0.00485152
0.00506428
0.00527033
0.00546392
0.00564782
0.00582375
0.00598824
0.00613389
0.00625777
0.00580763
0.00584439
0.00587255
0.00586808
0.00582112
0.00573766
0.0056236
0.00547707
0.00529365
0.00507642
0.00483379
0.00459113
0.00436094
0.00415853
0.00401791
0.003958
0.0039572
0.00400066
0.00407471
0.00418069
0.00434139
0.00453727
0.00474556
0.00494912
0.00514572
0.00533146
0.00550433
0.00566174
0.00579941
0.00591453
0.00546576
0.00551565
0.0055508
0.00554987
0.00550671
0.00542626
0.00531085
0.00515873
0.00496884
0.00474649
0.00450342
0.00426269
0.00403926
0.00385296
0.00372062
0.00366528
0.00366699
0.00369998
0.00375887
0.00385407
0.00400852
0.00419718
0.00440152
0.00460573
0.00480425
0.00499095
0.00516223
0.00531441
0.00544251
0.00554782
0.00508902
0.00514421
0.00517473
0.00516369
0.00510978
0.00501858
0.00489185
0.00473005
0.00453348
0.00431033
0.00407681
0.00385085
0.00364807
0.00348832
0.00337999
0.00333944
0.00334654
0.00337984
0.00343146
0.00352
0.00365684
0.0038269
0.00401734
0.00421427
0.00440985
0.00459625
0.0047679
0.00491929
0.00504406
0.00514546
0.00463754
0.00468408
0.0046953
0.0046619
0.00458973
0.00448673
0.00435626
0.00420069
0.00402271
0.00383098
0.00363766
0.00345437
0.00329499
0.00317354
0.00309604
0.00306745
0.00307801
0.00310969
0.00315534
0.0032264
0.00333004
0.00346202
0.0036155
0.00378229
0.00395505
0.00412669
0.00429044
0.00443924
0.00456384
0.00466641
0.00407348
0.00410459
0.00410135
0.00406293
0.00399883
0.00391925
0.00382417
0.00371726
0.00359896
0.00347355
0.00334905
0.0032315
0.00312631
0.00304528
0.00298958
0.00296484
0.00296953
0.00299173
0.00302143
0.00306717
0.00313125
0.00321377
0.00330954
0.00341726
0.00353203
0.0036517
0.00377299
0.00389022
0.00399195
0.00407905
0.00357252
0.00360607
0.00361833
0.00360996
0.00358848
0.00356045
0.00352168
0.00347261
0.00341242
0.00333596
0.00325734
0.00318274
0.0031178
0.00306085
0.00301686
0.00299593
0.0029961
0.00300777
0.00302406
0.00304795
0.00307869
0.00311704
0.00316814
0.00323122
0.00329642
0.00336472
0.00343491
0.0034977
0.00354032
0.00357263
0.00334248
0.00338343
0.00340581
0.00341125
0.00340858
0.00339994
0.00338047
0.00335253
0.00331901
0.00327617
0.00323407
0.00319229
0.00315121
0.00311485
0.00308983
0.00308181
0.00308426
0.00309443
0.00310459
0.00311916
0.00313495
0.00315636
0.00318486
0.00321332
0.00324049
0.00326424
0.00328545
0.00330816
0.00332436
0.0033363
0.000274426
0.000272129
0.000263782
0.000252886
0.000240254
0.000226545
0.000212144
0.000197468
0.000183025
0.000169593
0.000158097
0.000150419
0.000150661
0.000166913
0.000190092
0.000217831
0.000242773
0.000267382
0.00027969
0.000283508
0.000282323
0.000278689
0.000273537
0.000267808
0.000262051
0.000256618
0.000252116
0.000247558
0.000244825
0.00024188
0.0013519
0.00145287
0.00136171
0.00124026
0.00113266
0.00104272
0.000965862
0.000901432
0.000847702
0.000803498
0.000748402
0.00071396
0.0007449
0.00086613
0.00101449
0.00120528
0.00137888
0.00155693
0.00164324
0.00164477
0.00158965
0.00152168
0.00144434
0.00137004
0.0012991
0.00123422
0.00117473
0.00110429
0.0010176
0.000952589
0.00241548
0.00265628
0.00261227
0.00245578
0.00227726
0.00210707
0.00195313
0.00182059
0.00170878
0.00161597
0.0015055
0.00142621
0.0014618
0.00166103
0.00192171
0.00226588
0.00257887
0.00287641
0.00305483
0.00309017
0.00300514
0.00288288
0.00273791
0.00259451
0.00245787
0.00233112
0.00221453
0.00208885
0.00194323
0.00186133
0.00331543
0.00369523
0.0037364
0.00359214
0.0033789
0.00314906
0.00292838
0.00273165
0.00256234
0.00241945
0.00225739
0.00213503
0.00216389
0.00242035
0.00275188
0.00320167
0.00361747
0.00398826
0.00424218
0.00432265
0.00423336
0.00408011
0.00388932
0.00369599
0.00351174
0.00334396
0.00319417
0.0030376
0.00286449
0.00279406
0.004141
0.00462296
0.00474698
0.00462751
0.00439682
0.00412474
0.00384911
0.00359615
0.00337434
0.00318389
0.00297696
0.00281693
0.00283916
0.00313229
0.00350127
0.0040169
0.00449871
0.00492254
0.00523308
0.00535711
0.00528166
0.0051176
0.00490095
0.00467483
0.00445899
0.00426942
0.00410281
0.00393356
0.00375194
0.00371035
0.0049228
0.00547406
0.0056674
0.00557078
0.00532927
0.00502629
0.00470627
0.004405
0.0041366
0.00390086
0.00365731
0.00346622
0.00349017
0.003791
0.00417815
0.00472757
0.00524694
0.00570844
0.00606463
0.0062247
0.00617563
0.0060187
0.00579521
0.00555087
0.00531563
0.00511254
0.00494324
0.0047749
0.00459882
0.00459336
0.00567416
0.00626913
0.00651102
0.00642941
0.00617901
0.00585209
0.00549773
0.0051556
0.00484675
0.00457273
0.0042943
0.00408045
0.00412033
0.00440176
0.0047893
0.00534914
0.00588459
0.00636631
0.0067652
0.00695156
0.00693625
0.00680281
0.00659332
0.00634519
0.00610023
0.00588829
0.00572299
0.00556722
0.00540772
0.00544065
0.00639891
0.00701324
0.00728308
0.00720717
0.00694814
0.00660251
0.00622138
0.00584702
0.00550386
0.00519681
0.0048927
0.004668
0.00471569
0.00496547
0.0053403
0.00589403
0.0064289
0.00694185
0.00737226
0.0075589
0.00755885
0.00747652
0.00731061
0.00707709
0.00683059
0.00661459
0.00645205
0.00631596
0.00618238
0.00624966
0.00709472
0.00770683
0.00798463
0.00790536
0.0076379
0.00727807
0.00687671
0.00647768
0.00610767
0.00577427
0.00545536
0.00522744
0.0052679
0.00548267
0.00583546
0.00637188
0.00691729
0.00740983
0.00786795
0.00806917
0.0080931
0.0080131
0.00788533
0.0077213
0.00750925
0.00730594
0.0071448
0.00702678
0.00692307
0.00701723
0.00775506
0.00834535
0.00860919
0.0085241
0.00824933
0.00787941
0.00746409
0.00704765
0.00665805
0.00630505
0.0059748
0.00574644
0.00577255
0.00595376
0.00627769
0.00678878
0.00731716
0.00780219
0.00827982
0.0084957
0.00854208
0.00849288
0.00837641
0.00825019
0.00810513
0.00794082
0.00780164
0.0077046
0.00762695
0.00773802
0.00837069
0.00892203
0.00915639
0.0090642
0.00878369
0.00840778
0.00798448
0.00755762
0.00715546
0.0067894
0.00645021
0.00622359
0.00623376
0.0063791
0.00666808
0.00714867
0.00765585
0.00812628
0.00861477
0.00884601
0.00891635
0.00889916
0.00881359
0.00871119
0.00861778
0.00851318
0.00841268
0.00834279
0.00828847
0.00840479
0.00893177
0.00943111
0.00962775
0.00952714
0.00924272
0.00886491
0.00843945
0.00800887
0.00760086
0.00722788
0.00688195
0.00665848
0.00665029
0.00675864
0.00701743
0.00745796
0.007935
0.00838606
0.00887673
0.00912407
0.00921946
0.0092376
0.00919348
0.00911871
0.0090574
0.00901836
0.00896739
0.00893467
0.00890251
0.00900986
0.00942826
0.00986832
0.0100248
0.00991455
0.00962857
0.00925314
0.00883114
0.00840321
0.00799543
0.00762114
0.0072712
0.00705054
0.00702178
0.00709874
0.00732074
0.00771148
0.00814895
0.00857344
0.00906206
0.00933003
0.00945139
0.0095073
0.00950394
0.00947004
0.00944151
0.00943792
0.00945507
0.00946631
0.0094686
0.00954781
0.00985063
0.01023
0.0103483
0.0102279
0.00994362
0.00957501
0.00916189
0.00874266
0.00834065
0.00796972
0.0076173
0.00739963
0.00734916
0.00739275
0.0075718
0.00790376
0.00829184
0.00868505
0.00915953
0.00944845
0.0096061
0.00970477
0.00974479
0.00975866
0.00976412
0.00979522
0.00985272
0.00992169
0.00996482
0.0100202
0.010208
0.0105131
0.0105978
0.0104688
0.0101907
0.00983325
0.00943395
0.0090293
0.00863781
0.00827279
0.00792642
0.00770558
0.00762516
0.00763344
0.00776379
0.00802932
0.00835953
0.00871628
0.00916528
0.00947353
0.0096677
0.00981424
0.00990729
0.00997006
0.0100171
0.010082
0.0101685
0.0102735
0.0103652
0.010417
0.0104994
0.010734
0.010777
0.0106389
0.010373
0.0100302
0.00964794
0.00926438
0.0088908
0.00853631
0.00819519
0.00796685
0.00784985
0.00781337
0.00788925
0.00808314
0.00834897
0.00866363
0.00907702
0.00939977
0.00962977
0.00982759
0.00997672
0.0100929
0.0101901
0.0102904
0.0104048
0.0105293
0.0106449
0.0107184
0.0107257
0.0108918
0.0108933
0.0107491
0.0104976
0.0101774
0.00981521
0.0094441
0.00908012
0.008731
0.00838939
0.00815422
0.00801659
0.0079344
0.00794351
0.00806135
0.00825905
0.00852561
0.00889488
0.00922302
0.00948807
0.00973654
0.00994396
0.0101182
0.0102661
0.0104062
0.0105519
0.0107007
0.010833
0.0109154
0.0108744
0.0109725
0.0109306
0.0107933
0.0105502
0.0102438
0.00990087
0.00954893
0.00920043
0.00885941
0.00851684
0.00826586
0.00809775
0.00797177
0.00791999
0.00796124
0.00808502
0.00829613
0.00862348
0.00896771
0.00927398
0.00957137
0.00983238
0.0100629
0.0102588
0.0104387
0.0106162
0.0107887
0.0109371
0.0110348
0.0109138
0.0109439
0.0108952
0.0107573
0.0105249
0.0102347
0.00991278
0.00958025
0.00924573
0.00891118
0.00856915
0.00829898
0.00809769
0.00792613
0.00781428
0.00778178
0.00783716
0.00799387
0.00826997
0.00860214
0.00893437
0.00929956
0.00965525
0.0099419
0.0101827
0.0103954
0.0106016
0.0107931
0.010954
0.0110714
0.0108274
0.0108261
0.0107761
0.0106364
0.0104166
0.0101453
0.00984424
0.00952944
0.00920612
0.00887551
0.00853218
0.00824549
0.00800678
0.0077906
0.00762224
0.00752226
0.00751434
0.0076185
0.00784274
0.00815567
0.00850008
0.0088957
0.00930197
0.00967781
0.0100032
0.0102799
0.0105143
0.0107215
0.0108919
0.0110213
0.0106364
0.0106217
0.0105621
0.0104248
0.0102202
0.00996815
0.0096857
0.00938514
0.00906894
0.00873871
0.00839216
0.00808855
0.00781596
0.00755752
0.00733957
0.00718229
0.007121
0.0071757
0.00734957
0.00763911
0.00798697
0.00839906
0.00884021
0.00926061
0.00963127
0.00996341
0.0102574
0.0105075
0.0107017
0.0108423
0.0103216
0.0103071
0.0102438
0.0101168
0.0099281
0.00969266
0.00942442
0.00913244
0.0088181
0.00848402
0.00813226
0.0078117
0.0075114
0.00721836
0.00696176
0.0067617
0.00666208
0.00667077
0.00679873
0.00706033
0.00740681
0.00782432
0.00828434
0.00872768
0.00912965
0.00949407
0.0098241
0.0101108
0.0103419
0.0105109
0.00987604
0.00987184
0.0098168
0.0097008
0.00952476
0.00930122
0.0090414
0.00875217
0.00843469
0.00809283
0.00773474
0.00739954
0.00707912
0.00676693
0.00648629
0.00626239
0.00613976
0.00611234
0.00620127
0.00642987
0.00676739
0.00718114
0.00764072
0.00808464
0.00850689
0.00889825
0.00925381
0.00956726
0.00982764
0.0100216
0.00930065
0.00931339
0.00926816
0.00915963
0.00898958
0.00877077
0.00851252
0.00822063
0.00789745
0.00754928
0.00718844
0.00684565
0.00651722
0.0062065
0.00592062
0.00569553
0.00556124
0.00551325
0.00557299
0.00576716
0.00607903
0.00647759
0.00692915
0.00737706
0.00781319
0.00822165
0.00859653
0.00892948
0.00920727
0.00941036
0.00858559
0.0086149
0.00857443
0.0084672
0.0082953
0.00807587
0.0078166
0.0075236
0.00720084
0.00685729
0.00650677
0.00617213
0.00585398
0.00556607
0.00530245
0.00509384
0.00495778
0.00489929
0.00493792
0.00509997
0.00537357
0.00573316
0.00615721
0.00658776
0.00701719
0.00742777
0.00781019
0.00815272
0.00843959
0.00865705
0.00771257
0.00775046
0.00770779
0.00759844
0.0074247
0.00721055
0.00696196
0.00668544
0.0063854
0.00607134
0.00575658
0.00545633
0.0051733
0.00492747
0.00470852
0.00452828
0.00439532
0.00433985
0.00437274
0.00449901
0.00470385
0.00499768
0.0053677
0.00575185
0.00614588
0.00652838
0.00689513
0.0072297
0.00751665
0.00774538
0.00668111
0.00671935
0.00667818
0.00657914
0.00642525
0.0062436
0.00603811
0.00581332
0.00557127
0.0053195
0.00506959
0.00483049
0.00460352
0.00441087
0.00423844
0.00408261
0.00399156
0.00395878
0.0039833
0.00407203
0.00421417
0.00440272
0.00464939
0.00495775
0.00528571
0.00560162
0.0059128
0.00620256
0.00646037
0.00667923
0.00561672
0.00565807
0.00563941
0.0055796
0.00548138
0.00536722
0.00523715
0.00509166
0.00492893
0.00475283
0.00457567
0.00440299
0.00423026
0.00407912
0.00395004
0.00383531
0.00377017
0.0037474
0.00376141
0.00381879
0.00391408
0.00403323
0.00418428
0.00436378
0.00457426
0.00480866
0.00504322
0.00524962
0.00543375
0.00559833
0.00481202
0.00486226
0.0048736
0.00485773
0.00481733
0.00476612
0.00470102
0.00461911
0.00451641
0.00439054
0.0042572
0.00413354
0.00400684
0.00388559
0.00378117
0.00369141
0.00364195
0.00362508
0.00363626
0.00366827
0.00372586
0.00380123