/*--------------------------------*- C++ -*----------------------------------*\
| =========                 |                                                 |
| \\      /  F ield         | OpenFOAM: The Open Source CFD Toolbox           |
|  \\    /   O peration     | Version:  5.0                                   |
|   \\  /    A nd           | Web:      www.OpenFOAM.org                      |
|    \\/     M anipulation  |                                                 |
\*---------------------------------------------------------------------------*/
FoamFile
{
    version     2.0;
    format      ascii;
    class       volScalarField;
    location    "400/air";
    object      epsilon;
}
// * * * * * * * * * * * * * * * * * * * * * * * * * * * * * * * * * * * * * //

dimensions      [0 2 -3 0 0 0 0];

internalField   nonuniform List<scalar> 
243000
(
5.3006
5.94951
6.2914
6.43478
6.39518
6.19729
5.86629
5.43391
4.93703
4.42212
3.94688
3.54548
3.14219
2.73973
2.25534
2.3455
5.12191
10.4474
12.3587
12.3758
11.2046
9.64004
7.949
6.37312
5.01261
3.92755
3.24249
2.86545
2.78519
2.91175
3.41349
3.52634
3.43723
3.26601
3.0583
2.82779
2.58274
2.33199
2.08477
1.85341
1.64984
1.48298
1.3245
1.18235
1.01134
1.20601
2.81158
5.14727
6.10456
6.22278
5.77692
5.1529
4.43224
3.74322
3.12543
2.61925
2.27238
2.06348
2.03989
2.11312
4.67747
4.81467
4.67194
4.42381
4.12974
3.81033
3.47755
3.1435
2.81911
2.52003
2.26061
2.04797
1.83802
1.64509
1.4165
1.77464
4.10931
7.07099
8.34489
8.56176
8.0329
7.24486
6.31907
5.42239
4.61228
3.94092
3.46063
3.15466
3.10141
3.20966
5.70235
5.85018
5.68227
5.39347
5.04654
4.66699
4.2707
3.8732
3.48775
3.13439
2.82939
2.57705
2.31833
2.07034
1.78358
2.29781
5.1991
8.53188
10.0208
10.3406
9.79652
8.92327
7.87889
6.85469
5.92201
5.1427
4.56827
4.19357
4.10881
4.25258
6.54766
6.68994
6.51107
6.20282
5.82606
5.40822
4.96791
4.52381
4.09178
3.69552
3.35217
3.06299
2.75647
2.44964
2.10346
2.75783
6.06453
9.58749
11.2161
11.6334
11.1186
10.2196
9.12241
8.03259
7.03307
6.19331
5.5611
5.14557
5.03113
5.20685
7.25086
7.37866
7.19576
6.88026
6.48847
6.04764
5.57792
5.10041
4.63345
4.20321
3.82626
3.50126
3.14675
2.77695
2.37129
3.14501
6.71082
10.2939
12.0152
12.5175
12.0595
11.1778
10.0767
8.96803
7.94468
7.0816
6.42325
5.9903
5.85452
6.05522
7.83819
7.9479
7.76438
7.44879
7.05131
6.59783
6.10918
5.60821
5.11515
4.65744
4.25012
3.88915
3.48589
3.04908
2.58868
3.45679
7.15536
10.7025
12.4886
13.0645
12.6781
11.8446
10.7761
9.68356
8.66908
7.81101
7.15213
6.72098
6.57498
6.79404
8.32818
8.41942
8.23726
7.9258
7.52841
7.06904
6.56882
6.05158
5.53901
5.05847
4.62277
4.22496
3.77219
3.26523
2.77831
3.70346
7.41715
10.8772
12.6872
13.3379
13.0274
12.2654
11.2568
10.2071
9.22477
8.3932
7.75368
7.33933
7.19438
7.42698
8.73398
8.80817
8.62876
8.32396
7.9301
7.46919
6.96226
6.434
5.90665
5.40667
4.94368
4.50839
4.00418
3.42748
2.962
3.93491
7.53917
10.8988
12.7046
13.3904
13.1523
12.4843
11.56
10.5725
9.63517
8.84349
8.23807
7.85217
7.7182
7.96146
9.06498
9.12417
8.94867
8.65209
8.26372
7.8039
7.2936
6.758
6.2193
5.70234
5.21288
4.73943
4.18186
3.54283
3.1328
4.14753
7.56177
10.7627
12.5338
13.2668
13.089
12.4985
11.6797
10.7856
9.92245
9.17957
8.61713
8.26816
8.15321
8.4056
9.32738
9.3737
9.2033
8.91592
8.53413
8.07695
7.56557
7.02534
6.47792
5.94599
5.43118
4.91753
4.30727
3.63601
3.29181
4.34007
7.49496
10.4994
12.2323
13.0046
12.8848
12.3778
11.6443
10.8516
10.0851
9.41525
8.90239
8.59612
8.50586
8.76652
9.52441
9.5601
9.39606
9.11823
8.74293
8.28925
7.7789
7.23668
6.68322
6.13806
5.59783
5.04287
4.38473
3.73226
3.44269
4.51252
7.42733
10.1593
11.8325
12.6332
12.5684
12.1443
11.5016
10.798
10.1289
9.55012
9.10253
8.84326
8.78159
9.0495
9.65693
9.68439
9.52693
9.25905
8.89159
8.44282
7.9344
7.39097
6.83273
6.2761
5.71111
5.11782
4.4299
3.82559
3.58679
4.66501
7.3551
9.82249
11.3726
12.1824
12.1645
11.8181
11.2679
10.6542
10.0742
9.58512
9.2197
9.01267
8.98429
9.25816
9.72673
9.74619
9.5978
9.34105
8.98219
8.5398
8.03523
7.49304
6.9318
6.36454
5.77734
5.15382
4.48175
3.91734
3.72465
4.79793
7.27799
9.52256
10.9611
11.7174
11.7078
11.425
10.9579
10.4331
9.94129
9.53403
9.24909
9.10536
9.11222
9.39349
9.72757
9.74918
9.61207
9.36683
9.01706
8.58199
8.08289
7.54447
6.98288
6.40746
5.80323
5.17083
4.53626
4.00774
3.85608
4.91183
7.19564
9.24896
10.5889
11.3023
11.3031
11.0455
10.6208
10.1506
9.74086
9.41236
9.20115
9.12146
9.16216
9.45787
9.66636
9.68907
9.56621
9.3357
8.99805
8.5734
8.08322
7.55092
6.99149
6.41207
5.80516
5.19671
4.59308
4.09672
3.98071
5.00719
7.10732
8.99335
10.2448
10.923
10.9348
10.7021
10.3181
9.89522
9.51922
9.22818
9.08311
9.0602
9.14044
9.45392
9.53732
9.56505
9.45776
9.24349
8.92014
8.50797
8.02998
7.50882
6.95683
6.39557
5.81449
5.22833
4.65171
4.18424
4.09814
5.08447
7.01192
8.74971
9.92098
10.5688
10.5921
10.3838
10.0387
9.65951
9.31771
9.05458
8.91649
8.92705
9.03938
9.37278
9.34126
9.37774
9.28987
9.0937
8.7858
8.38966
7.9386
7.4466
6.92394
6.38609
5.82836
5.26345
4.71132
4.2698
4.20776
5.14415
6.90844
8.51259
9.61057
10.2319
10.2669
10.0825
9.77437
9.43567
9.12762
8.89145
8.76348
8.76199
8.86785
9.21563
9.11161
9.16143
9.09944
8.92557
8.64219
8.27518
7.85216
7.38833
6.89395
6.37983
5.84447
5.30044
4.77132
4.35311
4.30893
5.18688
6.79737
8.27859
9.30872
9.90562
9.95253
9.79216
9.51926
9.21847
8.94324
8.73263
8.61623
8.60773
8.69329
8.99231
8.89887
8.9568
8.91574
8.76193
8.50179
8.16225
7.76657
7.33025
6.86364
6.37404
5.86123
5.33831
4.83121
4.4338
4.4011
5.21343
6.67773
8.04428
9.011
9.58454
9.64314
9.50614
9.26789
9.00373
8.76037
8.57399
8.46962
8.45654
8.52598
8.77678
8.69241
8.75543
8.732
8.59707
8.35975
8.04666
7.67819
7.26969
6.83095
6.36684
5.87753
5.37646
4.89083
4.5118
4.48389
5.2258
6.54884
7.80719
8.71393
9.26425
9.33416
9.2199
9.01564
8.78631
8.5736
8.4103
8.31788
8.30206
8.35759
8.57049
8.4839
8.55095
8.54323
8.427
8.21201
7.92466
7.5848
7.20498
6.79466
6.35717
5.89273
5.41462
4.95008
4.58721
4.55731
5.22275
6.41061
7.56548
8.41454
8.9412
9.02192
8.92996
8.75868
8.56262
8.37912
8.23743
8.15615
8.13855
8.1818
8.36267
8.26702
8.33827
8.3458
8.24839
8.05626
7.79532
7.48452
7.13503
6.75426
6.34479
5.90691
5.45307
5.0096
4.66087
4.62241
5.20584
6.26408
7.31897
8.11147
8.61308
8.70395
8.63384
8.49381
8.32941
8.17337
8.05181
7.98074
7.96206
7.99459
8.1458
8.03684
8.11421
8.1369
8.0592
7.89107
7.65767
7.37698
7.05959
6.70998
6.33038
5.92172
5.49374
5.07163
4.73555
4.6827
5.18102
6.11295
7.07012
7.80598
8.28039
8.38009
8.3303
8.21882
8.08383
7.9538
7.85106
7.78894
7.76911
7.79169
7.9156
7.79076
7.87677
7.91499
7.85829
7.71576
7.51184
7.26355
6.97981
6.66416
6.31862
5.94313
5.54263
5.14447
4.82104
4.74932
5.16066
5.96881
6.82874
7.50632
7.95005
8.05557
8.02275
7.93648
7.82821
7.72192
7.63608
7.58145
7.56006
7.57268
7.67074
7.52876
7.62626
7.68086
7.64709
7.53254
7.36188
7.15056
6.90428
6.63206
6.32898
5.99026
5.62584
5.25833
4.95094
4.85834
5.18216
5.86671
6.62695
7.24128
7.64693
7.75172
7.72885
7.66068
7.57295
7.48522
7.4121
7.36187
7.33726
7.33942
7.41246
7.26405
7.37629
7.44988
7.44409
7.36373
7.23807
7.07735
6.88936
6.67316
6.428
6.14927
5.84149
5.52144
5.24071
5.12777
5.36203
5.91894
6.56854
7.10548
7.45565
7.54373
7.5162
7.44975
7.36689
7.28406
7.21225
7.15652
7.12175
7.10977
7.156
7.08279
7.22371
7.33644
7.37993
7.36832
7.32697
7.26205
7.1779
7.07042
6.93456
6.76493
6.55896
6.32119
6.08644
5.95585
6.09085
6.49829
7.00418
7.42668
7.68391
7.71991
7.65127
7.54804
7.43099
7.31375
7.20581
7.11358
7.03962
6.98946
6.9932
7.80142
8.01845
8.23692
8.42776
8.60114
8.77349
8.92466
9.05504
9.15335
9.20917
9.22491
9.18284
9.06252
8.88199
8.71526
8.70596
8.90288
9.19733
9.43541
9.5337
9.45471
9.29319
9.09855
8.8847
8.66347
8.444
8.23471
8.03652
7.86436
7.75319
15.8209
16.1603
16.5114
16.8618
17.2825
17.7009
17.9589
18.1279
18.2091
18.2268
18.2546
18.1887
17.9803
17.6794
17.3492
17.1213
17.0222
17.064
17.1222
17.149
17.1248
17.1142
17.102
17.055
16.9603
16.8118
16.6171
16.3745
16.1109
15.8541
9.96672
11.6471
12.3969
12.6081
12.3702
11.7721
10.883
9.78882
8.59134
7.42233
6.42846
5.69624
5.11342
5.32017
6.98376
12.5564
19.597
27.7043
31.3208
31.1961
28.573
25.0124
21.1731
17.5718
14.4249
11.8212
9.83297
8.23132
7.22919
6.46725
6.95936
7.11153
7.35347
7.49899
7.44531
7.19092
6.76721
6.22003
5.60883
5.01718
4.55449
4.25615
4.14305
4.72349
6.37214
10.3627
14.4675
18.5898
20.499
20.5847
19.3444
17.4328
15.2603
13.1212
11.192
9.51411
8.14971
7.01174
6.30426
5.88194
6.91941
6.5535
6.50473
6.53544
6.50445
6.34934
6.06664
5.6813
5.23796
4.81685
4.50553
4.33475
4.35505
5.05627
6.70354
10.2331
13.4747
16.5616
18.0799
18.2484
17.4029
15.9699
14.2729
12.566
10.9506
9.48955
8.30071
7.29011
6.6769
6.34519
7.05079
6.4377
6.22717
6.17901
6.14104
6.03072
5.82547
5.52946
5.19377
4.87308
4.64443
4.54119
4.6365
5.37686
6.97518
10.1357
12.8778
15.4166
16.7362
16.952
16.3317
15.1884
13.7817
12.3114
10.8971
9.61818
8.54661
7.6203
7.02853
6.72568
7.12827
6.40936
6.09093
5.99225
5.94674
5.86392
5.71156
5.48217
5.22598
4.97531
4.8001
4.73837
4.87936
5.60998
7.12472
9.93139
12.3085
14.481
15.6583
15.8977
15.4357
14.5091
13.3237
12.0384
10.7866
9.63274
8.67227
7.83412
7.25815
6.94755
7.14151
6.3781
6.001
5.87119
5.8203
5.75649
5.64251
5.46863
5.2687
5.07323
4.93488
4.89837
5.06392
5.74993
7.15805
9.63251
11.7234
13.6207
14.6783
14.9235
14.5766
13.8206
12.8172
11.6984
10.5837
9.54288
8.65419
7.89331
7.33546
7.01462
7.08905
6.33
5.93292
5.7837
5.72963
5.6797
5.59448
5.46403
5.30638
5.15277
5.0401
5.01715
5.18938
5.81191
7.10095
9.26639
11.1277
12.8056
13.7587
13.9969
13.7335
13.114
12.2636
11.2956
10.3018
9.36666
8.54951
7.84508
7.30251
6.97828
6.99075
6.26746
5.87425
5.71678
5.66167
5.62184
5.55799
5.46001
5.33402
5.21041
5.11423
5.09632
5.26154
5.79897
6.96465
8.85531
10.5357
12.034
12.8957
13.1191
12.9142
12.4039
11.6827
10.8454
9.97124
9.12666
8.38034
7.73099
7.20893
6.88471
6.86536
6.1953
5.8206
5.66393
5.60969
5.57674
5.52799
5.45312
5.35027
5.24574
5.15853
5.13923
5.28191
5.74419
6.76862
8.4137
9.96288
11.3135
12.0949
12.2985
12.1316
11.707
11.0955
10.3717
9.60445
8.84812
8.16715
7.57204
7.07726
6.75648
6.72601
6.11813
5.77161
5.62338
5.5696
5.54045
5.50114
5.44127
5.35568
5.26107
5.1757
5.15035
5.26306
5.65165
6.54463
7.98328
9.42448
10.6496
11.3617
11.5436
11.3988
11.0386
10.5167
9.89226
9.22056
8.55038
7.92936
7.38522
6.92342
6.61164
6.58163
6.03929
5.72698
5.59138
5.53813
5.51007
5.47506
5.42279
5.34994
5.26235
5.17212
5.13463
5.21312
5.53552
6.32512
7.60381
8.93498
10.0514
10.7028
10.8612
10.7266
10.4126
9.96138
9.4204
8.83341
8.24111
7.68144
7.18496
6.75857
6.46213
6.43782
5.96103
5.68575
5.56446
5.51229
5.48327
5.44841
5.39833
5.32977
5.24418
5.14837
5.09783
5.14189
5.41925
6.12355
7.27786
8.51701
9.53338
10.1275
10.2582
10.124
9.8394
9.44156
8.96808
8.45345
7.93113
7.43109
6.98069
6.59109
6.31485
6.29776
5.88461
5.64669
5.54004
5.48957
5.45813
5.42046
5.36864
5.30031
5.21324
5.11163
5.04833
5.06797
5.31517
5.95025
7.00312
8.17183
9.11141
9.65138
9.74519
9.59995
9.32849
8.96677
8.54513
8.08979
7.62801
7.1829
6.77876
6.42617
6.17325
6.16305
5.81038
5.60881
5.51668
5.46832
5.43352
5.39124
5.33533
5.26455
5.17474
5.0695
4.9983
5.00535
5.22979
5.81164
6.78303
7.89865
8.7812
9.28092
9.33862
9.16939
8.8916
8.54707
8.16027
7.75053
7.33864
6.94215
6.58214
6.26689
6.03867
6.03466
5.73894
5.57196
5.49389
5.44786
5.40948
5.36207
5.30149
5.22752
5.13615
5.03304
4.96265
4.96081
5.16983
5.70371
6.6198
7.69594
8.53839
9.00664
9.03944
8.84436
8.54751
8.19991
7.82585
7.44519
7.07033
6.7142
6.39335
6.11399
5.91128
5.91394
5.67139
5.53684
5.47227
5.42889
5.38766
5.33631
5.27266
5.19775
5.10908
5.01404
4.94768
4.94119
5.14117
5.63423
6.51461
7.56123
8.37655
8.82184
8.84004
8.61913
8.29875
7.93749
7.56314
7.19157
6.83412
6.50646
6.21688
5.96898
5.79134
5.80266
5.60987
5.50636
5.45575
5.41751
5.37673
5.32644
5.26549
5.19422
5.11105
5.0232
4.96049
4.95312
5.14073
5.61289
6.46814
7.49061
8.28825
8.72014
8.73514
8.49026
8.14461
7.76183
7.37634
7.00371
6.65322
6.33351
6.06065
5.8357
5.68056
5.70588
5.56151
5.49199
5.45564
5.42307
5.38578
5.34019
5.28494
5.22009
5.14414
5.06666
5.0087
5.00474
5.19
5.64558
6.48248
7.49827
8.28964
8.70274
8.71506
8.44342
8.07394
7.66724
7.26447
6.88265
6.5299
6.21228
5.94174
5.7236
5.58273
5.6445
5.55251
5.50776
5.48413
5.46116
5.43204
5.39394
5.34626
5.28933
5.22222
5.15553
5.10297
5.10607
5.29246
5.73814
6.55824
7.55819
8.34429
8.75455
8.777
8.47586
8.06498
7.63512
7.21442
6.82062
6.46022
6.14013
5.86895
5.65224
5.50933
5.64479
5.58896
5.56681
5.55738
5.54576
5.52683
5.49853
5.46052
5.41431
5.35896
5.30455
5.25884
5.27116
5.46061
5.8999
6.70182
7.68445
8.46595
8.87617
8.91351
8.59978
8.16459
7.69135
7.23287
6.81471
6.44307
6.11724
5.84303
5.62572
5.48027
5.70056
5.67843
5.67832
5.68585
5.68887
5.68319
5.66805
5.64379
5.61316
5.57427
5.53537
5.49937
5.52279
5.71454
6.14784
6.92609
7.88561
8.65888
9.06917
9.1215
8.8037
8.35107
7.8534
7.36466
6.9139
6.5158
6.17228
5.88703
5.66503
5.51784
5.83009
5.83268
5.85698
5.88471
5.90754
5.92048
5.92458
5.92143
5.91489
5.90058
5.88362
5.86327
5.90085
6.09119
6.51589
7.26043
8.18576
8.94052
9.34684
9.40987
9.09365
8.62852
8.10931
7.59522
7.11901
6.69615
6.33123
6.0277
5.79057
5.63531
6.04587
6.07113
6.12287
6.17706
6.22801
6.26975
6.30546
6.3377
6.37127
6.39717
6.41556
6.42315
6.48097
6.66577
7.07555
7.77081
8.64325
9.35917
9.7527
9.8143
9.49593
9.01849
8.47927
7.93996
7.43736
6.98762
6.59727
6.26991
6.01302
5.8471
6.37363
6.42355
6.51155
6.6052
6.70056
6.79123
6.88302
6.97976
7.08461
7.18275
7.26648
7.32948
7.4224
7.60032
7.98419
8.6071
9.39545
10.0407
10.3994
10.432
10.0919
9.58876
9.01936
8.44782
7.91252
7.42961
7.0067
6.64775
6.36311
6.17939
6.86886
6.95406
7.09925
7.25995
7.43451
7.61729
7.81788
8.04097
8.28326
8.52198
8.73834
8.91627
9.08472
9.2676
9.60245
10.1176
10.765
11.298
11.5675
11.5099
11.0982
10.5261
9.88891
9.25443
8.66001
8.12097
7.64468
7.23567
6.90622
6.68983
7.67456
7.82559
8.07756
8.37029
8.70427
9.07851
9.50671
9.99197
10.517
11.0482
11.5471
11.9732
12.3129
12.5351
12.7875
13.1134
13.5314
13.8498
13.921
13.655
13.0665
12.3254
11.5233
10.7334
9.99745
9.33111
8.73894
8.22765
7.80946
7.52533
9.24413
9.54864
10.0273
10.6107
11.2956
12.0945
13.0159
14.057
15.1715
16.3058
17.3833
18.3104
18.989
19.2863
19.3655
19.3179
19.2857
19.188
18.8509
18.2012
17.271
16.2102
15.0795
13.9394
12.8634
11.8789
10.998
10.2369
9.60505
9.15591
13.0373
13.7314
14.7433
15.9728
17.4282
19.1286
21.0171
23.1051
25.2751
27.4124
29.3496
30.9289
31.9265
32.0875
31.6197
30.7418
29.8121
28.9667
27.9904
26.8867
25.6582
24.3485
22.8841
21.2944
19.661
18.041
16.5133
15.1449
13.9691
13.0835
23.5036
25.0411
27.0377
29.3083
31.8914
34.7919
37.8409
40.9257
43.8393
46.1806
47.7909
48.6861
48.5663
47.4607
45.4173
42.7755
40.4697
38.5843
36.9757
35.9064
35.2658
34.9932
34.549
33.8469
32.772
31.3121
29.5181
27.4702
25.4474
23.7639
40.6678
43.3907
46.0228
48.227
50.2485
52.2169
53.7144
54.7843
55.3106
54.7178
53.3199
51.4763
48.9544
45.9162
42.697
39.6319
37.103
35.0452
33.4563
32.6755
32.5347
33.2299
34.5118
36.0447
37.602
39.0228
40.1152
40.5694
40.4645
40.4167
14.8119
16.8332
17.812
18.1476
17.8832
17.1056
15.8933
14.3705
12.6961
11.0824
9.72904
8.98823
9.59094
13.6533
20.4712
30.7165
41.6721
53.4889
58.1463
56.5663
51.4999
45.1146
38.4116
32.1374
26.606
21.9074
18.0972
14.8487
12.3878
10.2718
9.03269
8.91207
9.19899
9.50698
9.59806
9.42722
9.01611
8.41617
7.70974
7.00892
6.47632
6.32528
7.21223
10.065
14.2712
19.7054
24.9005
29.759
31.5238
30.8749
28.7618
25.8993
22.7875
19.7213
16.8958
14.3844
12.2799
10.4626
9.19065
8.12554
8.53035
7.84401
7.72341
7.84004
7.93061
7.88594
7.67607
7.3233
6.88459
6.44386
6.14894
6.20062
7.15215
9.68451
13.1586
17.3282
21.1723
24.5538
25.7219
25.2835
23.8431
21.8225
19.5686
17.2808
15.1121
13.141
11.467
9.97211
8.93438
8.11107
8.42459
7.45824
7.14954
7.15604
7.21897
7.22039
7.11061
6.8922
6.60501
6.31441
6.15707
6.33027
7.31606
9.58772
12.5997
16.0502
19.1738
21.8019
22.7031
22.3891
21.3007
19.7265
17.9283
16.0611
14.2527
12.5695
11.1119
9.79929
8.85927
8.14561
8.26475
7.21125
6.8095
6.75639
6.80068
6.82522
6.77952
6.6525
6.47099
6.28712
6.22451
6.48165
7.47032
9.50262
12.124
15.0434
17.6454
19.7685
20.5029
20.2727
19.4241
18.1586
16.6797
15.1149
13.5697
12.0927
10.7948
9.62284
8.73539
8.07973
8.04372
7.0038
6.56213
6.4785
6.51251
6.55161
6.5501
6.48971
6.3865
6.28611
6.28984
6.60623
7.56633
9.38428
11.655
14.1304
16.3232
18.0662
18.677
18.5029
17.8291
16.795
15.5612
14.2335
12.8991
11.6016
10.4298
9.3767
8.53309
7.92108
7.78993
6.81171
6.36576
6.26994
6.29911
6.3488
6.37692
6.36551
6.32061
6.28022
6.33952
6.69514
7.58804
9.21706
11.1773
13.2752
15.133
16.5774
17.088
16.9501
16.4069
15.5527
14.5146
13.3797
12.2209
11.0823
10.0243
9.07192
8.27692
7.70022
7.52713
6.63454
6.20544
6.10877
6.1359
6.19268
6.24095
6.2631
6.26116
6.2654
6.3619
6.73322
7.56209
9.01008
10.6955
12.4732
14.0539
15.2616
15.6881
15.5699
15.1221
14.4117
13.5341
12.5591
11.5494
10.5467
9.60001
8.73617
7.9947
7.4529
7.27146
6.47242
6.07326
5.98297
6.00901
6.0695
6.13032
6.17468
6.20235
6.23801
6.35504
6.72711
7.5016
8.77444
10.2189
11.7289
13.0824
14.1
14.455
14.3458
13.9661
13.3672
12.6221
11.7833
10.9024
10.0183
9.17301
8.39255
7.70906
7.20433
7.03264
6.32681
5.96751
5.88422
5.90891
5.96997
6.03704
6.09463
6.14181
6.19881
6.33067
6.69666
7.41423
8.52114
9.75726
11.0492
12.2191
13.0844
13.3784
13.2707
12.9372
12.4228
11.7844
11.0612
10.2925
9.51321
8.75911
8.0577
7.43449
6.96933
6.81569
6.19845
5.88213
5.80532
5.8282
5.88729
5.95571
6.01973
6.07884
6.14995
6.29255
6.64684
7.30558
8.2613
9.31947
10.4422
11.4684
12.2131
12.4542
12.3414
12.0352
11.5825
11.027
10.3993
9.72766
9.04098
8.36959
7.74171
7.17862
6.75463
6.62108
6.08563
5.81092
5.74036
5.76118
5.81659
5.88297
5.9487
6.0143
6.09466
6.24506
6.58573
7.18233
8.00762
8.93682
9.92775
10.8408
11.4899
11.6833
11.5578
11.2615
10.8487
10.3544
9.8022
9.21192
8.60636
8.00952
7.44955
6.94422
6.56146
6.44632
5.98494
5.74874
5.68508
5.70396
5.75486
5.81732
5.88209
5.95099
6.03796
6.19406
6.52056
7.05969
7.78735
8.61541
9.50459
10.33
10.9056
11.0677
10.9252
10.6197
10.2247
9.76959
9.27318
8.74787
8.21102
7.6803
7.18188
6.73109
6.3882
6.2881
5.89309
5.69226
5.63703
5.65466
5.70132
5.75962
5.8228
5.89407
5.98745
6.15008
6.46415
6.95847
7.60909
8.35964
9.17135
9.93163
10.4494
10.592
10.4354
10.1171
9.7179
9.27746
8.81625
8.3381
7.85606
7.3819
6.93826
6.53744
6.23178
6.14368
5.80814
5.64046
5.59584
5.61365
5.65779
5.71363
5.7768
5.85181
5.95505
6.12258
6.42637
6.8895
7.48047
8.17254
8.92663
9.63995
10.1136
10.2467
10.0795
9.74467
9.33086
8.88818
8.43793
7.98794
7.54436
7.11509
6.71796
6.36098
6.08911
6.01178
5.73058
5.59535
5.56366
5.58417
5.62972
5.68746
5.75456
5.83464
5.94359
6.11536
6.41232
6.8564
7.4089
8.05707
8.76948
9.45014
9.89145
10.0241
9.85161
9.49797
9.06161
8.60412
8.14891
7.70667
7.283
6.88417
6.52238
6.20053
5.95827
5.89385
5.66508
5.5639
5.54618
5.57208
5.62216
5.68575
5.76234
5.85472
5.97606
6.15906
6.45016
6.86955
7.39345
8.01803
8.70078
9.35903
9.77865
9.91849
9.74894
9.37441
8.91161
8.42903
7.95477
7.50524
7.08618
6.69989
6.35596
6.05847
5.83969
5.79782
5.62668
5.56269
5.55651
5.59344
5.6546
5.7298
5.81809
5.92365
6.05872
6.2553
6.54837
6.95862
7.4607
8.06441
8.72483
9.37289
9.78214
9.92564
9.74497
9.34173
8.85172
8.34316
7.84314
7.37714
6.9507
6.56431
6.22727
5.94284
5.73898
5.7461
5.63171
5.59186
5.60437
5.65788
5.73479
5.82646
5.93197
6.05627
6.20991
6.42171
6.72124
7.13054
7.61957
8.20991
8.85139
9.48836
9.88849
10.0456
9.87929
9.45629
8.91322
8.33759
7.80527
7.31772
6.8777
6.48265
6.14412
5.86548
5.66921
5.75206
5.67891
5.66637
5.70497
5.78099
5.87983
5.99464
6.12442
6.27491
6.45409
6.68693
6.99544
7.41192
7.89565
8.47836
9.10074
9.72582
10.1164
10.2866
10.1367
9.70258
9.13184
8.5135
7.908
7.35535
6.87172
6.45965
6.11252
5.83281
5.6389
5.82055
5.78739
5.80831
5.87914
5.98528
6.11435
6.26152
6.42565
6.61334
6.82878
7.09206
7.41803
7.84552
8.33225
8.91222
9.51148
10.1169
10.4942
10.6728
10.5345
10.0934
9.49709
8.83645
8.17662
7.56902
7.02929
6.56497
6.18183
5.88371
5.68311
5.98971
5.98602
6.04732
6.15753
6.30463
6.47632
6.6698
6.88429
7.12662
7.39568
7.70562
8.06385
8.51059
9.00511
9.58862
10.156
10.7244
11.0817
11.2563
11.1183
10.6667
10.041
9.33523
8.6166
7.94458
7.34516
6.82567
6.3951
6.05894
5.83367
6.29203
6.3189
6.42717
6.58909
6.79445
7.02941
7.29275
7.5846
7.91099
8.2637
8.64891
9.0649
9.549
10.0559
10.6508
11.17
11.677
11.993
12.1428
11.9822
11.5065
10.8389
10.076
9.28783
8.53589
7.85898
7.26846
6.77364
6.38458
6.12491
6.78819
6.85366
7.02455
7.26129
7.5556
7.89056
8.26626
8.68383
9.14636
9.63603
10.1485
10.6684
11.2232
11.7582
12.3698
12.8096
13.2248
13.4576
13.5454
13.3202
12.7869
12.0482
11.1992
10.3182
9.45947
8.67373
7.98231
7.39704
6.93195
6.619
7.59891
7.72443
7.99388
8.35029
8.79208
9.29534
9.86274
10.4958
11.1896
11.9121
12.6455
13.3519
14.0399
14.6356
15.2596
15.5679
15.8376
15.9187
15.8754
15.5179
14.8663
14.001
13.0017
11.9744
10.9584
10.006
9.15416
8.42743
7.84204
7.44056
9.00596
9.24145
9.68338
10.2503
10.9537
11.7556
12.6639
13.6777
14.7713
15.893
17.0039
18.0302
18.9484
19.6317
20.2301
20.2949
20.3067
20.0777
19.7023
19.1319
18.3851
17.3517
16.1071
14.8369
13.5597
12.3447
11.2181
10.2437
9.4447
8.881
11.7445
12.199
12.96
13.9116
15.087
16.4228
17.9289
19.5907
21.3385
23.0834
24.7576
26.2319
27.4277
28.093
28.4459
27.9294
26.9869
25.9922
25.1006
24.2691
23.5049
22.6678
21.5567
20.0372
18.3912
16.7785
15.2031
13.7922
12.5876
11.6983
17.7595
18.6318
19.9499
21.5421
23.4764
25.6396
28.0207
30.5585
33.1092
35.5019
37.6224
39.2736
40.2787
40.1974
39.1123
36.6898
34.3724
32.3856
30.8858
29.8762
29.3088
29.0627
28.7365
28.1026
26.9478
25.2076
23.1993
21.246
19.3876
17.8869
30.652
32.1926
34.1869
36.4281
39.013
41.794
44.6728
47.5086
50.0927
52.064
53.1666
53.2674
52.0502
49.4694
45.9572
41.535
37.9509
35.1583
33.2169
32.2494
32.0808
32.7581
33.7483
34.7352
35.4996
35.8733
35.6554
34.392
32.6685
30.951
43.2724
46.2536
49.0473
51.442
53.5785
55.465
56.9203
57.9299
58.3343
57.7253
55.9378
53.3301
49.7627
45.5007
40.751
35.8463
32.1335
29.3728
27.4813
26.6385
26.6487
27.6586
29.3514
31.4482
33.7367
36.0547
38.1566
39.912
41.28
42.6712
19.555
21.8587
22.94
23.4471
23.2834
22.4845
21.1168
19.3302
17.3123
15.3205
13.5395
13.1005
17.0454
25.7522
37.9091
53.9704
69.5416
85.2476
90.8641
86.3518
77.7611
67.6757
57.4405
48.0203
39.7779
32.74
26.9173
21.8479
17.7184
13.9625
10.9005
10.5478
10.8381
11.3086
11.5557
11.4942
11.1344
10.533
9.78619
9.00394
8.38917
8.57181
11.2737
16.1295
22.2987
29.5281
36.2126
42.0327
43.6687
41.7863
38.3503
34.2012
29.9316
25.8518
22.1573
18.8737
16.0925
13.6436
11.8695
10.1479
9.91253
8.95597
8.79032
8.98714
9.1835
9.23212
9.09206
8.78031
8.36161
7.91415
7.64449
8.08191
10.3985
14.2747
18.9529
24.1833
29.0236
32.9844
33.8619
32.5478
30.1774
27.3006
24.3177
21.4114
18.7101
16.2473
14.1183
12.2193
10.8561
9.6142
9.52065
8.32329
7.95808
8.01881
8.16163
8.24046
8.20322
8.04226
7.80172
7.54824
7.48318
8.05121
10.1521
13.4557
17.3198
21.5165
25.3814
28.407
28.9877
27.9844
26.1536
23.9042
21.5487
19.222
17.0185
14.9712
13.1696
11.5477
10.3297
9.29441
9.14338
7.87986
7.45531
7.45566
7.5655
7.6577
7.68124
7.61999
7.50125
7.38781
7.46145
8.11844
10.0274
12.9064
16.1829
19.6517
22.8233
25.196
25.6194
24.8311
23.3606
21.5205
19.5737
17.6307
15.7646
14.0065
12.4328
10.9976
9.86713
8.95843
8.73005
7.53297
7.10094
7.07589
7.16796
7.26926
7.33225
7.34099
7.31176
7.30381
7.47421
8.2008
9.93955
12.4581
15.2624
18.1535
20.7719
22.6386
22.9598
22.329
21.1268
19.589
17.9409
16.2808
14.6696
13.1359
11.7406
10.4606
9.40582
8.59308
8.32984
7.24936
6.83842
6.80556
6.88817
6.99603
7.0866
7.14394
7.18171
7.25404
7.50516
8.27475
9.86129
12.0702
14.4712
16.8805
19.0339
20.5039
20.7457
20.23
19.2377
17.9392
16.5244
15.0854
13.6768
12.3248
11.0785
9.93528
8.95948
8.22776
7.96674
7.02195
6.64381
6.61146
6.68827
6.80015
6.90919
7.0006
7.08712
7.22196
7.54007
8.33352
9.78343
11.7233
13.7767
15.7772
17.543
18.6949
18.8698
18.4364
17.6063
16.5018
15.2799
14.0216
12.7805
11.5811
10.464
9.44186
8.54896
7.8884
7.65399
6.84342
6.50181
6.47356
6.54587
6.65913
6.77964
6.89431
7.01594
7.19949
7.57336
8.37617
9.70453
11.4091
13.1646
14.8228
16.2675
17.1635
17.2787
16.9021
16.1963
15.2482
14.187
13.0816
11.9826
10.9146
9.91196
8.99649
8.18692
7.59153
7.39433
6.70375
6.40063
6.37716
6.44521
6.55771
6.68451
6.81471
6.96385
7.18454
7.60285
8.40424
9.62615
11.1246
12.6299
14.009
15.1921
15.8803
15.9417
15.6004
14.988
14.1645
13.2358
12.2605
11.2833
10.3297
9.42905
8.60733
7.87765
7.34232
7.18416
6.59707
6.33401
6.31053
6.37416
6.4846
6.61435
6.75512
6.92531
7.17536
7.62818
8.41988
9.55052
10.8711
12.1738
13.3357
14.3118
14.8269
14.8396
14.5137
13.9661
13.2395
12.418
11.5517
10.6788
9.8243
9.01482
8.27508
7.6191
7.13797
7.01517
6.51591
6.29014
6.26398
6.32369
6.43213
6.56338
6.71181
6.89748
7.17118
7.65116
8.42729
9.48181
10.6548
11.8048
12.7935
13.6023
13.9932
13.9631
13.6312
13.1212
12.4634
11.7246
10.9467
10.1615
9.39165
8.66316
7.99551
7.40495
6.97116
6.87724
6.45134
6.25776
6.23055
6.28727
6.39338
6.52581
6.68083
6.88031
7.17693
7.67659
8.43433
9.42708
10.4912
11.5159
12.3629
13.0353
13.3292
13.2726
12.9464
12.4508
11.8306
11.149
10.4381
9.72273
9.02412
8.36328
7.75881
7.2272
6.83517
6.76106
6.3963
6.23117
6.20606
6.26131
6.36636
6.50082
6.66292
6.87487
7.19972
7.71469
8.45587
9.39771
10.3792
11.3009
12.0314
12.5924
12.8113
12.7396
12.4195
11.9361
11.3422
10.6888
10.0209
9.35743
8.71543
8.10765
7.55646
7.07754
6.72291
6.65932
6.34675
6.20864
6.18954
6.24564
6.35142
6.48963
6.66176
6.90052
7.25472
7.78632
8.51272
9.39581
10.3207
11.1574
11.7924
12.2624
12.4243
12.3458
12.0332
11.5579
10.9803
10.3464
9.69821
9.06396
8.45912
7.88927
7.38249
6.9486
6.6273
6.5677
6.30253
6.19289
6.18157
6.24158
6.35497
6.51029
6.7066
6.97309
7.3535
7.90124
8.61918
9.46116
10.3056
11.0876
11.6444
12.0405
12.1608
12.0812
11.7782
11.3068
10.7358
10.111
9.46991
8.84168
8.24883
7.70716
7.2334
6.8352
6.54276
6.4865
6.26957
6.19243
6.1924
6.27076
6.40287
6.57702
6.79553
7.08757
7.49364
8.05754
8.76919
9.58306
10.3731
11.1003
11.592
11.9283
12.0184
11.9432
11.6484
11.1789
10.5964
9.96174
9.31336
8.68263
8.09324
7.56397
7.11041
6.73667
6.46681
6.42468
6.26545
6.21208
6.23538
6.33736
6.49186
6.68949
6.9349
7.25508
7.68937
8.27081
8.9797
9.77335
10.5243
11.2107
11.6472
11.9352
12.0021
11.9252
11.6243
11.1417
10.5411
9.89166
9.23121
8.58999
7.99446
7.46654
7.02057
6.65913
6.40318
6.40823
6.29171
6.26623
6.32157
6.45279
6.63601
6.86436
7.14347
7.49774
7.96117
8.56418
9.27607
10.0586
10.785
11.4446
11.8319
12.0769
12.1229
12.0496
11.7601
11.2826
10.6544
9.94722
9.23607
8.56781
7.95654
7.41981
6.97141
6.61282
6.36394
6.43726
6.36531
6.37389
6.46944
6.63742
6.85777
7.12594
7.44769
7.84503
8.34519
8.97256
9.69661
10.4796
11.1968
11.8441
12.1835
12.3897
12.4048
12.3253
12.0491
11.5815
10.9482
10.2144
9.46116
8.72258
8.0445
7.4572
6.97759
6.60593
6.35572
6.54233
6.5094
6.56395
6.70652
6.92148
7.1905
7.51071
7.8881
8.34254
8.89332
9.55689
10.3005
11.1002
11.826
12.4773
12.7634
12.9257
12.888
12.7885
12.5181
12.062
11.4275
10.6658
9.86054
9.06701
8.32898
7.67255
7.12916
6.71627
6.44425
6.7657
6.76461
6.87546
7.07532
7.35191
7.68652
8.07699
8.53008
9.06395
9.6879
10.4092
11.1931
12.0228
12.7783
13.4538
13.6776
13.7623
13.6373
13.4954
13.2184
12.7747
12.1422
11.3582
10.484
9.61811
8.80301
8.06607
7.44481
6.96662
6.64811
7.15614
7.19382
7.37175
7.64616
8.00584
8.43255
8.92245
9.48385
10.1327
10.8664
11.6811
12.5382
13.4265
14.2261
14.9492
15.0811
15.0131
14.7481
14.5281
14.2256
13.7959
13.1747
12.3763
11.4382
10.4656
9.5464
8.70533
7.97879
7.40881
7.02787
7.80832
7.89826
8.16416
8.54186
9.02007
9.58162
10.2191
10.9422
11.7631
12.6643
13.6291
14.6115
15.6007
16.4642
17.241
17.166
16.8308
16.3456
15.9928
15.6381
15.2279
14.6416
13.8564
12.8874
11.7822
10.7135
9.72714
8.85716
8.15535
7.67987
8.90231
9.07111
9.46462
9.99472
10.6516
11.4184
12.2816
13.2519
14.3344
15.4905
16.6886
17.8697
19.0154
19.9525
20.7382
20.153
19.371
18.5444
17.9807
17.5439
17.1714
16.6759
15.9725
15.0348
13.8832
12.5917
11.3873
10.3127
9.4161
8.78928
10.8187
11.1148
11.7052
12.4692
13.4034
14.486
15.6945
17.039
18.5074
20.0332
21.5603
23.0143
24.3425
25.274
25.6154
24.1046
22.6315
21.3077
20.4411
19.9014
19.6143
19.3225
18.8551
18.1129
17.0624
15.7158
14.1934
12.8077
11.6252
10.7492
14.3913
14.9019
15.7933
16.9044
18.2487
19.789
21.4873
23.3428
25.3103
27.2778
29.1479
30.8288
32.1333
32.4101
31.6228
28.5627
26.0966
24.1517
22.9253
22.2931
22.1601
22.2557
22.2987
22.0819
21.4863
20.4793
19.0356
17.252
15.6752
14.4122
21.2599
22.1262
23.4103
24.9394
26.7718
28.8218
31.0299
33.3582
35.707
37.8867
39.7099
41.0285
41.1497
39.7553
37.0204
31.9569
28.4589
25.8946
24.3722
23.7025
23.7612
24.3748
25.1677
25.9227
26.3625
26.3701
25.8241
24.7257
23.059
21.4067
32.2754
33.8676
35.6325
37.5029
39.6051
41.7871
43.9987
46.141
48.0369
49.3644
49.7864
49.008
46.8316
43.2056
38.3109
31.765
27.6783
24.8355
23.2024
22.5544
22.7272
23.7274
25.2358
26.9654
28.7318
30.3414
31.5575
32.1725
32.3508
32.2818
36.9243
40.073
43.0684
45.6774
47.8647
49.6184
50.9713
51.861
52.1363
51.4601
49.7023
46.9824
43.0631
38.2323
32.5775
26.2722
22.5089
20.0177
18.5485
17.9507
18.0534
18.9161
20.358
22.2307
24.4111
26.7774
29.1628
31.4685
33.6463
35.9415
24.2626
27.2144
28.1156
28.7482
28.7407
28.0077
26.5796
24.6095
22.2755
19.8261
17.3326
17.5393
25.1249
38.9652
57.4907
81.3286
104.623
126.85
132.396
123.734
109.348
93.7397
78.4803
65.0325
53.6498
43.9822
35.9744
28.9667
23.0728
17.5272
12.7409
12.3695
12.558
13.1239
13.501
13.5334
13.2162
12.6101
11.8114
10.9071
10.1301
10.7803
15.0647
21.7808
30.127
39.8758
49.4664
57.4999
58.6636
55.0409
49.405
43.2719
37.3067
31.9246
27.2484
23.1496
19.7097
16.6996
14.5033
12.1362
11.3083
10.2106
9.9821
10.2225
10.4862
10.5899
10.4833
10.1765
9.74015
9.23901
8.93831
9.8132
13.2423
18.3374
24.4851
31.4904
38.3475
43.6251
44.0364
41.4798
37.5853
33.3566
29.2784
25.5366
22.1962
19.2157
16.6641
14.3832
12.7345
11.0938