/*--------------------------------*- C++ -*----------------------------------*\
| =========                 |                                                 |
| \\      /  F ield         | OpenFOAM: The Open Source CFD Toolbox           |
|  \\    /   O peration     | Version:  5.0                                   |
|   \\  /    A nd           | Web:      www.OpenFOAM.org                      |
|    \\/     M anipulation  |                                                 |
\*---------------------------------------------------------------------------*/
FoamFile
{
    version     2.0;
    format      ascii;
    class       volScalarField;
    location    "400/air";
    object      k;
}
// * * * * * * * * * * * * * * * * * * * * * * * * * * * * * * * * * * * * * //

dimensions      [0 2 -2 0 0 0 0];

internalField   nonuniform List<scalar> 
243000
(
0.099006
0.104237
0.105523
0.104568
0.101764
0.0975
0.0920961
0.0858805
0.0792003
0.0724956
0.066348
0.0611308
0.0559691
0.0508324
0.0445641
0.0452539
0.0755306
0.123318
0.13961
0.141409
0.134162
0.123249
0.110251
0.0969365
0.0842606
0.0731714
0.0659862
0.0623099
0.0627107
0.066331
0.171641
0.175375
0.172372
0.16657
0.159411
0.151285
0.142408
0.133033
0.123457
0.11415
0.105638
0.0984017
0.0912836
0.0846605
0.0763074
0.0847164
0.148007
0.22376
0.251486
0.255043
0.242897
0.225157
0.203663
0.18194
0.161275
0.143324
0.130413
0.122406
0.121528
0.124468
0.211709
0.215793
0.21147
0.203887
0.194728
0.184539
0.173621
0.16231
0.15094
0.140068
0.130291
0.122002
0.113543
0.105489
0.0954625
0.109432
0.190808
0.276715
0.309856
0.315575
0.302674
0.282652
0.258066
0.233021
0.209147
0.188289
0.172687
0.162434
0.160676
0.164459
0.241547
0.245674
0.240918
0.232662
0.222556
0.211237
0.19909
0.186526
0.173932
0.161977
0.151302
0.142187
0.132539
0.122957
0.111266
0.12987
0.223427
0.313779
0.350148
0.357958
0.345553
0.324834
0.299018
0.272508
0.247155
0.224931
0.207868
0.196399
0.193823
0.198394
0.26481
0.268612
0.263776
0.255366
0.244902
0.233032
0.220192
0.206854
0.193459
0.180759
0.169396
0.159535
0.14875
0.137555
0.124159
0.146558
0.247795
0.339271
0.377532
0.387247
0.376024
0.355623
0.329756
0.302952
0.277242
0.254677
0.237042
0.225128
0.221855
0.227073
0.283395
0.286702
0.281924
0.273609
0.263107
0.251037
0.23785
0.224061
0.210162
0.196945
0.185005
0.17441
0.162483
0.14956
0.134446
0.159874
0.26529
0.355809
0.395305
0.406657
0.396976
0.377545
0.352404
0.326079
0.300757
0.278533
0.260992
0.249166
0.245459
0.251122
0.29845
0.301221
0.296551
0.288451
0.278086
0.26602
0.252704
0.238681
0.224474
0.21088
0.198422
0.187065
0.173965
0.159191
0.1425
0.170198
0.277034
0.36519
0.405645
0.418433
0.410446
0.392425
0.368542
0.343224
0.318801
0.297379
0.28041
0.269057
0.265215
0.27116
0.310712
0.312975
0.308435
0.300606
0.290466
0.278517
0.265206
0.251084
0.236696
0.222809
0.209853
0.197687
0.183377
0.166643
0.149294
0.17827
0.283873
0.369169
0.409931
0.424251
0.417939
0.401656
0.37942
0.355492
0.332296
0.311994
0.295935
0.285327
0.281621
0.287747
0.320673
0.322489
0.318092
0.310557
0.30068
0.288907
0.275673
0.261538
0.247045
0.232913
0.219455
0.206439
0.190837
0.172136
0.155739
0.185779
0.287076
0.369654
0.410302
0.425351
0.420576
0.40639
0.386178
0.363914
0.342077
0.323056
0.308136
0.298465
0.295121
0.30138
0.32867
0.330107
0.325864
0.31863
0.309025
0.29745
0.284332
0.270231
0.255677
0.241323
0.227352
0.213442
0.196462
0.175986
0.161609
0.192564
0.287729
0.366545
0.406586
0.422704
0.419192
0.406646
0.388786
0.368747
0.348819
0.331178
0.317505
0.308902
0.306088
0.312464
0.334925
0.336047
0.331973
0.325039
0.315701
0.304324
0.291338
0.277297
0.262707
0.248145
0.233658
0.21877
0.200392
0.179
0.166966
0.198618
0.286247
0.360496
0.399992
0.417078
0.414771
0.403975
0.387946
0.370184
0.35257
0.33679
0.324449
0.316994
0.314823
0.321314
0.339565
0.340434
0.336548
0.3299
0.320798
0.30961
0.29677
0.282817
0.26822
0.253458
0.23842
0.222491
0.202804
0.182097
0.171966
0.20398
0.284751
0.352632
0.391173
0.409051
0.407893
0.398813
0.384707
0.368898
0.353518
0.339943
0.329256
0.323008
0.321555
0.328153
0.342648
0.343324
0.339621
0.333252
0.324396
0.3134
0.300696
0.286812
0.2722
0.257245
0.241637
0.224706
0.204186
0.185072
0.17667
0.208679
0.283111
0.344861
0.380922
0.399215
0.399045
0.391569
0.379404
0.365546
0.352175
0.340699
0.33202
0.327074
0.326443
0.333134
0.344237
0.344731
0.34126
0.335183
0.32657
0.315776
0.303224
0.289438
0.274821
0.25966
0.243512
0.225769
0.205727
0.18797
0.181113
0.212749
0.281303
0.337852
0.371708
0.389001
0.388973
0.382771
0.37234
0.36039
0.349
0.339419
0.332655
0.329259
0.329478
0.336323
0.344198
0.344753
0.341562
0.335771
0.327394
0.316799
0.304411
0.290755
0.276169
0.260832
0.244246
0.226233
0.207356
0.190802
0.185299
0.216222
0.27932
0.331382
0.36326
0.37976
0.379937
0.374239
0.364647
0.353784
0.34422
0.336458
0.331444
0.329584
0.330629
0.337811
0.3427
0.34329
0.340438
0.334999
0.326912
0.316573
0.304411
0.290918
0.276399
0.260964
0.244278
0.226959
0.209049
0.193571
0.189229
0.219124
0.277147
0.325269
0.355356
0.371206
0.371625
0.366424
0.357661
0.347806
0.338956
0.331987
0.328539
0.328047
0.33005
0.337668
0.339593
0.340313
0.337829
0.332766
0.325006
0.314949
0.303067
0.289835
0.275487
0.260496
0.244518
0.227852
0.210792
0.196276
0.1929
0.221482
0.274761
0.319379
0.347824
0.363122
0.363802
0.359098
0.351143
0.342236
0.334128
0.32779
0.324483
0.324769
0.327558
0.335686
0.334878
0.33582
0.333794
0.329143
0.32172
0.312012
0.300743
0.288212
0.274594
0.260219
0.244887
0.228847
0.212559
0.198905
0.196302
0.223315
0.272126
0.313588
0.340521
0.355343
0.356297
0.35209
0.344917
0.336898
0.329537
0.323817
0.320731
0.320725
0.323354
0.331879
0.329337
0.330605
0.329187
0.325046
0.318177
0.30914
0.298536
0.286689
0.273781
0.260031
0.245321
0.229897
0.214334
0.201451
0.199424
0.224652
0.269266
0.307816
0.333338
0.347722
0.348963
0.345268
0.338852
0.331674
0.32505
0.319922
0.317098
0.316921
0.319069
0.326458
0.324162
0.325636
0.324716
0.321036
0.314698
0.306298
0.296345
0.285168
0.272963
0.25986
0.245775
0.230973
0.216102
0.203907
0.202257
0.22551
0.266156
0.301978
0.326174
0.34014
0.341667
0.33848
0.332822
0.326469
0.32057
0.316008
0.313461
0.313171
0.314936
0.321189
0.319103
0.320713
0.320217
0.316976
0.311162
0.303379
0.294076
0.283581
0.272083
0.259653
0.246219
0.232057
0.217857
0.206271
0.204797
0.225951
0.262774
0.296012
0.318943
0.332491
0.334301
0.331618
0.326717
0.321159
0.315966
0.311946
0.309679
0.309322
0.310752
0.316108
0.313959
0.31568
0.315567
0.312763
0.307468
0.300289
0.291673
0.281884
0.27111
0.259382
0.246635
0.233142
0.219599
0.208551
0.20705
0.225973
0.259118
0.289867
0.311573
0.324686
0.326773
0.324593
0.320444
0.315653
0.311139
0.307632
0.305629
0.305227
0.306363
0.310954
0.30857
0.31041
0.310672
0.308314
0.303555
0.297
0.289084
0.280047
0.270027
0.259039
0.247024
0.234237
0.221347
0.210774
0.209053
0.225584
0.25521
0.283535
0.304025
0.316664
0.31902
0.317343
0.313918
0.309867
0.305999
0.302972
0.301212
0.300782
0.301658
0.305537
0.302805
0.304815
0.305455
0.303571
0.299381
0.293484
0.286301
0.278062
0.268841
0.258644
0.247434
0.235396
0.223166
0.213024
0.210916
0.224972
0.251149
0.277076
0.296325
0.30843
0.311029
0.309831
0.307078
0.303721
0.300472
0.297898
0.296354
0.295892
0.296525
0.299742
0.296587
0.298836
0.29987
0.298498
0.294923
0.28974
0.283353
0.275959
0.267613
0.258323
0.24803
0.236791
0.225299
0.215596
0.212978
0.224502
0.247259
0.27075
0.288682
0.300151
0.302925
0.302134
0.299982
0.297265
0.294587
0.292424
0.291061
0.290556
0.290939
0.293524
0.289902
0.292469
0.293926
0.293124
0.290233
0.285867
0.280405
0.273964
0.266755
0.258608
0.249343
0.239161
0.228623
0.219483
0.216318
0.225268
0.244535
0.26543
0.281856
0.292468
0.295252
0.294699
0.292981
0.290758
0.288529
0.286675
0.285414
0.284822
0.284936
0.286902
0.283079
0.286053
0.28801
0.287916
0.285882
0.282654
0.27849
0.273575
0.267864
0.261311
0.253751
0.245253
0.236215
0.228024
0.224386
0.230659
0.24615
0.263968
0.278379
0.287608
0.289971
0.289288
0.287593
0.285472
0.283345
0.281513
0.280097
0.279234
0.278975
0.28026
0.278381
0.282119
0.2851
0.286278
0.286014
0.28498
0.283333
0.281183
0.278419
0.274895
0.270452
0.264986
0.258565
0.252049
0.248161
0.251455
0.262285
0.275759
0.286885
0.29359
0.294582
0.292843
0.290204
0.287202
0.284187
0.281402
0.279029
0.277131
0.275865
0.276027
0.297024
0.302554
0.308069
0.312855
0.317169
0.321436
0.325159
0.328365
0.330791
0.332198
0.332647
0.331697
0.328838
0.324429
0.320185
0.319627
0.324178
0.33124
0.336988
0.339395
0.337555
0.333687
0.329
0.323818
0.318419
0.313022
0.307841
0.302903
0.298592
0.295813
0.476426
0.483223
0.49021
0.497134
0.505377
0.513545
0.518525
0.521793
0.523385
0.523805
0.524408
0.523204
0.519254
0.513439
0.506939
0.502352
0.500281
0.50106
0.502171
0.50273
0.502271
0.502051
0.501808
0.500888
0.499037
0.496124
0.492293
0.487496
0.482258
0.477123
0.15076
0.163076
0.165828
0.163716
0.157965
0.149525
0.139022
0.127112
0.114538
0.102328
0.0917682
0.0837428
0.0772441
0.0786502
0.0935358
0.138366
0.186931
0.237224
0.259827
0.262154
0.250637
0.232952
0.212118
0.190922
0.170849
0.152919
0.138406
0.125911
0.118372
0.11273
0.27216
0.277989
0.270634
0.258902
0.245108
0.23003
0.214051
0.197777
0.181934
0.167632
0.155392
0.146856
0.143575
0.157838
0.194702
0.27593
0.351499
0.429136
0.467013
0.470967
0.450326
0.419627
0.38372
0.347585
0.313398
0.282956
0.257983
0.235428
0.218502
0.209641
0.354891
0.357043
0.348511
0.335687
0.320314
0.302945
0.284168
0.264972
0.246353
0.229735
0.215616
0.205821
0.202849
0.222801
0.271473
0.370606
0.460363
0.548243
0.594765
0.603765
0.582883
0.548296
0.506547
0.463577
0.422574
0.385614
0.354984
0.327457
0.307233
0.299473
0.416602
0.414574
0.405355
0.392691
0.377282
0.359386
0.339666
0.319256
0.299257
0.281391
0.266192
0.255608
0.252777
0.275965
0.330926
0.437267
0.53353
0.624062
0.674976
0.688478
0.67029
0.636021
0.593101
0.548051
0.504483
0.46468
0.431386
0.401646
0.379812
0.373052
0.464292
0.458829
0.449004
0.436792
0.421926
0.404343
0.384669
0.364046
0.343643
0.325238
0.309351
0.298183
0.29536
0.319904
0.377529
0.484748
0.582622
0.672912
0.725568
0.742491
0.728108
0.696252
0.654653
0.61006
0.566355
0.526066
0.491876
0.461536
0.438662
0.432404
0.501973
0.49397
0.483641
0.471904
0.457746
0.44084
0.421714
0.401437
0.381212
0.362692
0.346321
0.33465
0.331665
0.355872
0.413744
0.517985
0.614599
0.702832
0.755844
0.775025
0.76464
0.736262
0.697435
0.654777
0.612401
0.573027
0.539189
0.509317
0.485913
0.479673
0.532012
0.522346
0.511688
0.500423
0.486989
0.470893
0.452538
0.432891
0.413117
0.394675
0.377939
0.365767
0.36235
0.384983
0.441038
0.540144
0.633909
0.718698
0.77163
0.792079
0.785331
0.761019
0.725887
0.686107
0.645934
0.608308
0.575588
0.546857
0.523482
0.516926
0.556013
0.545433
0.534666
0.523871
0.511119
0.495835
0.478309
0.459388
0.440157
0.421852
0.404798
0.392075
0.387922
0.408106
0.460337
0.553321
0.643691
0.724514
0.776534
0.798047
0.794078
0.774191
0.743365
0.70717
0.669685
0.634276
0.603138
0.575926
0.553088
0.546071
0.575136
0.564213
0.553554
0.543241
0.531103
0.516566
0.499815
0.481603
0.462898
0.44472
0.427348
0.41401
0.408802
0.42588
0.472728
0.558852
0.646947
0.725106
0.774912
0.796031
0.793266
0.777256
0.752383
0.72051
0.686003
0.652968
0.623622
0.598122
0.576229
0.568759
0.59023
0.579365
0.569005
0.559191
0.5476
0.5337
0.517607
0.500014
0.481769
0.463675
0.445971
0.431947
0.425382
0.438976
0.48021
0.559678
0.646331
0.719041
0.767051
0.788505
0.786811
0.773609
0.751702
0.725778
0.696283
0.666185
0.638593
0.614807
0.594119
0.586291
0.601897
0.591352
0.581464
0.572162
0.561059
0.547673
0.532094
0.514992
0.497127
0.479078
0.461028
0.446276
0.438114
0.448182
0.485162
0.55871
0.641279
0.710011
0.755967
0.777277
0.776388
0.765624
0.746968
0.72419
0.699791
0.674157
0.649317
0.627177
0.607707
0.599633
0.610474
0.600494
0.591228
0.582441
0.571769
0.558789
0.543599
0.526869
0.509315
0.491293
0.472918
0.457453
0.447708
0.455095
0.488654
0.556784
0.635038
0.699901
0.743378
0.764018
0.763565
0.754667
0.739036
0.719299
0.698052
0.676806
0.65564
0.635966
0.617759
0.609486
0.616298
0.606961
0.598468
0.590199
0.579906
0.567257
0.552375
0.535958
0.51868
0.500707
0.48211
0.466092
0.45536
0.460698
0.491315
0.554284
0.628314
0.689863
0.731197
0.750357
0.749766
0.741993
0.728722
0.71198
0.693479
0.675142
0.657552
0.641026
0.625035
0.616443
0.619819
0.610941
0.603257
0.595527
0.585572
0.573211
0.558625
0.542576
0.525648
0.507826
0.48923
0.473043
0.461624
0.465399
0.493552
0.551622
0.621517
0.679734
0.718872
0.737488
0.73653
0.728859
0.717053
0.70262
0.686844
0.670949
0.655863
0.642194
0.629176
0.620848
0.62125
0.612993
0.60598
0.598768
0.589185
0.57715
0.562896
0.5472
0.530791
0.513326
0.495232
0.479234
0.466937
0.469593
0.495213
0.549105
0.614953
0.669879
0.706809
0.724746
0.723387
0.716071
0.705194
0.692174
0.678404
0.664853
0.651887
0.640312
0.629535
0.622443
0.621004
0.613471
0.607081
0.600361
0.591202
0.579613
0.565885
0.550768
0.535013
0.518275
0.500719
0.484439
0.471758
0.473577
0.496713
0.546946
0.60883
0.660544
0.695301
0.712474
0.710767
0.703618
0.693297
0.681292
0.668989
0.65712
0.646167
0.636351
0.627346
0.621366
0.618679
0.612326
0.606937
0.600729
0.592102
0.58119
0.568315
0.554094
0.539071
0.522792
0.505448
0.489155
0.476513
0.477563
0.498578
0.545288
0.603267
0.651854
0.684503
0.700891
0.698951
0.691888
0.681876
0.670526
0.659183
0.648549
0.639034
0.630703
0.62333
0.618403
0.614609
0.609723
0.605705
0.600537
0.592667
0.582662
0.570616
0.557209
0.542774
0.52693
0.510002
0.49392
0.481617
0.48201
0.501064
0.544205
0.598292
0.643805
0.674434
0.690085
0.688088
0.68115
0.671348
0.660379
0.649599
0.639734
0.631177
0.624004
0.617761
0.613797
0.61014
0.606752
0.603894
0.599752
0.592805
0.583746
0.572717
0.56026
0.546522
0.531345
0.515024
0.499312
0.487512
0.487215
0.504385
0.544064
0.593967
0.636403
0.665075
0.680001
0.678161
0.67153
0.662007
0.651292
0.640791
0.631317
0.62329
0.61678
0.611484
0.608609
0.604894
0.603029
0.601449
0.598379
0.592871
0.585007
0.575179
0.563747
0.551038
0.536755
0.521206
0.505985
0.494688
0.493563
0.508782
0.54471
0.590324
0.62962
0.656359
0.670539
0.669074
0.662977
0.653941
0.643551
0.633231
0.623894
0.616032
0.609758
0.60497
0.602837
0.599683
0.59933
0.599141
0.59738
0.593531
0.587022
0.578522
0.568547
0.557136
0.54395
0.529313
0.514679
0.503741
0.501579
0.514624
0.546417
0.58749
0.623526
0.648269
0.661647
0.660783
0.655476
0.647204
0.637318
0.627217
0.617904
0.609984
0.603649
0.598981
0.597094
0.595403
0.596458
0.597768
0.597721
0.595397
0.590648
0.583958
0.575666
0.565766
0.553868
0.540266
0.526301
0.515501
0.512066
0.522591
0.549851
0.586227
0.618493
0.641023
0.653466
0.653401
0.649123
0.641923
0.63277
0.623126
0.613908
0.605798
0.599114
0.594243
0.592276
0.592826
0.595221
0.598457
0.600316
0.599854
0.597154
0.592569
0.586287
0.578219
0.567878
0.555455
0.54223
0.531404
0.526458
0.534025
0.556295
0.587554
0.615565
0.635471
0.646659
0.647516
0.644382
0.638375
0.630181
0.621011
0.611987
0.603838
0.596922
0.591632
0.589274
0.592693
0.59689
0.602411
0.606497
0.608409
0.608105
0.606085
0.602325
0.596585
0.588248
0.577354
0.56511
0.554241
0.547674
0.551763
0.568596
0.594005
0.617427
0.634147
0.643347
0.64482
0.642563
0.637337
0.629903
0.62161
0.613117
0.604987
0.597653
0.591785
0.588938
0.596905
0.60333
0.611535
0.618365
0.623318
0.626308
0.627717
0.627426
0.624978
0.619574
0.611114
0.600579
0.590124
0.582126
0.582284
0.593239
0.612068
0.62985
0.642371
0.648833
0.649762
0.647516
0.642707
0.636006
0.628362
0.620201
0.611977
0.604093
0.597251
0.593479
0.608809
0.618095
0.629827
0.640453
0.649687
0.657559
0.664337
0.669723
0.672665
0.672259
0.668395
0.661486
0.652904
0.644182
0.640453
0.64466
0.655552
0.666511
0.673306
0.675389
0.673396
0.669055
0.66282
0.655191
0.646836
0.637978
0.628825
0.619764
0.611417
0.606195
0.637844
0.651508
0.668437
0.685156
0.701432
0.717621
0.733551
0.74859
0.761044
0.76995
0.774664
0.774765
0.770575
0.762136
0.754316
0.749903
0.750567
0.752506
0.751321
0.746529
0.738789
0.729787
0.719306
0.707353
0.69485
0.682066
0.669184
0.656711
0.644989
0.636765
0.709928
0.731357
0.757526
0.784779
0.813261
0.84349
0.873357
0.902822
0.92912
0.950597
0.965825
0.973913
0.973257
0.962981
0.947152
0.930039
0.916594
0.906876
0.895876
0.884657
0.873191
0.861749
0.847789
0.831015
0.811806
0.790705
0.768949
0.747753
0.727467
0.71167
0.892671
0.925722
0.963554
1.00203
1.04215
1.08425
1.12458
1.16135
1.19151
1.20914
1.21546
1.21266
1.19875
1.17415
1.14031
1.10281
1.0727
1.04946
1.03012
1.01912
1.01507
1.01742
1.01919
1.01878
1.01253
0.999925
0.980931
0.954902
0.924655
0.897614
1.13578
1.18036
1.21964
1.24951
1.27493
1.29801
1.31272
1.32023
1.31991
1.30432
1.27925
1.2488
1.20996
1.16503
1.11893
1.07662
1.04212
1.01447
0.992835
0.983483
0.983841
0.997688
1.02133
1.04842
1.07534
1.09948
1.11838
1.12857
1.12987
1.13123
0.196408
0.208502
0.211163
0.208695
0.201928
0.191772
0.17888
0.164105
0.148501
0.133555
0.120819
0.113273
0.117104
0.147063
0.192173
0.251991
0.309858
0.368416
0.392862
0.390123
0.371464
0.345429
0.315777
0.285797
0.257231
0.230983
0.208088
0.186778
0.169655
0.153555
0.340425
0.350544
0.344788
0.334517
0.321203
0.305432
0.287478
0.268325
0.249046
0.231183
0.214471
0.207021
0.225799
0.287633
0.370674
0.474761
0.570832
0.663108
0.701149
0.694216
0.658717
0.61157
0.558887
0.506377
0.456405
0.410471
0.370004
0.331133
0.297921
0.271031
0.442207
0.444679
0.437576
0.427457
0.413998
0.397104
0.377201
0.35571
0.334133
0.314359
0.296399
0.289699
0.314993
0.390721
0.489878
0.610429
0.719845
0.8187
0.863546
0.861091
0.824619
0.77269
0.713066
0.652304
0.593721
0.539183
0.490914
0.444619
0.405914
0.378521
0.514854
0.511421
0.503506
0.493914
0.481131
0.464525
0.444534
0.422697
0.400767
0.380769
0.363185
0.358138
0.387609
0.469284
0.573633
0.698343
0.811328
0.908402
0.956041
0.958369
0.925079
0.873978
0.813479
0.750573
0.689208
0.631581
0.580381
0.531499
0.490752
0.46475
0.569911
0.562476
0.553866
0.544715
0.532701
0.516885
0.497642
0.476484
0.455215
0.435855
0.419349
0.416264
0.448645
0.531485
0.63471
0.757283
0.867959
0.960994
1.00908
1.01522
0.986724
0.939104
0.880792
0.818889
0.757779
0.69998
0.648316
0.599354
0.55771
0.53339
0.613018
0.603198
0.59409
0.585239
0.573912
0.55903
0.540878
0.520862
0.500715
0.482401
0.467238
0.466167
0.500615
0.581053
0.67981
0.796225
0.901561
0.989307
1.0368
1.04549
1.02222
0.979448
0.925115
0.865916
0.806669
0.750267
0.699493
0.651848
0.61026
0.58762
0.647674
0.636605
0.627174
0.618522
0.607766
0.593797
0.576812
0.558076
0.53919
0.52205
0.508289
0.50918
0.544714
0.620508
0.712761
0.82092
0.919306
1.00079
1.04743
1.05747
1.03924
1.00204
0.953001
0.897602
0.841131
0.786953
0.737865
0.692321
0.651749
0.630544
0.676093
0.664512
0.65491
0.646393
0.636078
0.622918
0.607024
0.58952
0.571871
0.555878
0.543506
0.546153
0.581743
0.651602
0.736245
0.835283
0.925989
1.00271
1.04767
1.05684
1.04153
1.01122
0.969015
0.918428
0.865263
0.813671
0.766696
0.723633
0.684885
0.664858
0.699708
0.688033
0.678385
0.669972
0.659972
0.647473
0.632512
0.616104
0.599588
0.584667
0.573598
0.577692
0.612398
0.675684
0.752277
0.842173
0.926725
0.995757
1.03891
1.04813
1.0357
1.00823
0.971884
0.929219
0.881452
0.833438
0.788659
0.748107
0.711685
0.692656
0.719432
0.707868
0.698257
0.689932
0.680143
0.668144
0.653939
0.638458
0.622958
0.609025
0.599133
0.604318
0.637315
0.693877
0.762434
0.843722
0.921149
0.984292
1.0253
1.03439
1.02409
1.00064
0.967878
0.930618
0.889774
0.84671
0.805307
0.767572
0.733566
0.715399
0.735823
0.724454
0.714935
0.706667
0.697017
0.685386
0.67178
0.657079
0.642489
0.629489
0.620636
0.626564
0.657415
0.707199
0.767952
0.841679
0.912824
0.970506
1.00906
1.01788
1.00916
0.989043
0.960383
0.927211
0.891949
0.854657
0.817443
0.78291
0.751442
0.73401
0.749154
0.738026
0.728655
0.720424
0.710874
0.699533
0.686423
0.672409
0.658659
0.646572
0.638647
0.645099
0.673271
0.716669
0.771469
0.83825
0.903528
0.95626
0.99208
1.00039
0.992635
0.97523
0.950475
0.921015
0.889847
0.858245
0.825608
0.794771
0.765959
0.749026
0.759468
0.748667
0.73954
0.731378
0.721948
0.710884
0.698243
0.684897
0.671974
0.660833
0.653774
0.660527
0.685889
0.724308
0.773666
0.834014
0.893796
0.941977
0.975618
0.983547
0.975982
0.96049
0.938703
0.912911
0.88534
0.85758
0.830155
0.803243
0.77772
0.760814
0.766707
0.756391
0.747677
0.7397
0.730487
0.719771
0.707663
0.695064
0.683037
0.672944
0.666773
0.673748
0.696647
0.730646
0.775052
0.829414
0.884044
0.928048
0.959543
0.967326
0.960371
0.946056
0.926273
0.903598
0.878998
0.85457
0.830806
0.808269
0.786278
0.769806
0.771476
0.761242
0.753185
0.74562
0.73682
0.726623
0.71522
0.70357
0.692602
0.683762
0.678644
0.685524
0.706082
0.736142
0.775984
0.824747
0.874513
0.914652
0.94407
0.95195
0.945547
0.932239
0.914159
0.893521
0.871417
0.849614
0.828621
0.809309
0.791022
0.775864
0.773963
0.764043
0.756483
0.749492
0.741427
0.73204
0.721628
0.711297
0.70164
0.693899
0.689648
0.696286
0.714687
0.741196
0.776683
0.82019
0.865313
0.901816
0.929248
0.937455
0.931668
0.919314
0.902579
0.883477
0.863299
0.843352
0.824482
0.807311
0.79145
0.778506
0.774551
0.765226
0.758414
0.752177
0.74506
0.736897
0.727747
0.718649
0.71029
0.703682
0.70026
0.706502
0.72293
0.746136
0.777459
0.815869
0.856482
0.889488
0.91502
0.923747
0.918753
0.907441
0.89188
0.873983
0.855113
0.836546
0.819099
0.803403
0.789212
0.777771
0.773521
0.765447
0.75963
0.754423
0.748354
0.741428
0.733742
0.726113
0.719176
0.713723
0.71105
0.716717
0.731275
0.751284
0.778549
0.811907
0.848037
0.877592
0.901277
0.910687
0.906744
0.896683
0.882333
0.865453
0.847479
0.829803
0.813237
0.798492
0.785392
0.77524
0.771458
0.764791
0.760383
0.756402
0.751748
0.746336
0.74035
0.734387
0.72897
0.724681
0.722655
0.727568
0.74025
0.757064
0.78028
0.808505
0.840064
0.866126
0.887927
0.898057
0.895427
0.886924
0.874057
0.858156
0.840925
0.823721
0.807606
0.793305
0.780864
0.771789
0.768797
0.763846
0.76124
0.758859
0.755964
0.752407
0.748359
0.744222
0.740421
0.737311
0.735834
0.739865
0.750466
0.76404
0.783131
0.806027
0.83281
0.855233
0.874997
0.88576
0.884693
0.878025
0.86692
0.852235
0.835618
0.818773
0.802845
0.788632
0.776474
0.767982
0.766508
0.763794
0.763022
0.762656
0.76192
0.760535
0.758651
0.756512
0.754441
0.752544
0.751553
0.754599
0.762849
0.77305
0.78789
0.805179
0.826859
0.845366
0.862796
0.87391
0.874675
0.870058
0.861009
0.847704
0.831762
0.815262
0.799416
0.785137
0.773018
0.7647
0.765975
0.765199
0.766743
0.768885
0.770726
0.771832
0.772361
0.772431
0.772264
0.771661
0.771163
0.77318
0.778891
0.785417
0.795929
0.807285
0.823434
0.837583
0.852215
0.863115
0.865902
0.863474
0.8567
0.844802
0.829659
0.813512
0.797731
0.783348
0.771145
0.76283
0.767935
0.769409
0.773806
0.77885
0.783684
0.78771
0.791044
0.793708
0.795768
0.796662
0.796783
0.797848
0.800949
0.803606
0.809704
0.814765
0.824855
0.834073
0.845351
0.855078
0.859647
0.859463
0.854769
0.844159
0.830132
0.814653
0.798949
0.784228
0.771664
0.763232
0.774054
0.77831
0.786037
0.79448
0.802862
0.810419
0.817185
0.823086
0.82795
0.83088
0.832062
0.832518
0.833155
0.832206
0.833683
0.832093
0.835445
0.839119
0.846403
0.853833
0.858889
0.860608
0.858166
0.849926
0.8375
0.822659
0.806981
0.791734
0.77827
0.768841
0.786861
0.794686
0.806526
0.819139
0.831953
0.844042
0.855351
0.86568
0.87445
0.880455
0.883665
0.884352
0.883169
0.879255
0.876285
0.867508
0.863227
0.860314
0.862524
0.866636
0.870703
0.872798
0.871624
0.865232
0.854262
0.839842
0.823716
0.807488
0.792524
0.781852
0.811898
0.824462
0.841618
0.859741
0.878531
0.896898
0.914717
0.931554
0.946105
0.956932
0.963812
0.966242
0.964508
0.958134
0.950772
0.933891
0.920346
0.909349
0.904216
0.903805
0.905934
0.907177
0.905816
0.899939
0.88931
0.874541
0.856776
0.838351
0.820811
0.807959
0.862934
0.881988
0.906294
0.931987
0.959144
0.986456
1.01359
1.03962
1.06217
1.0795
1.09138
1.09659
1.09465
1.08442
1.06967
1.04024
1.01108
0.988186
0.974091
0.968431
0.969554
0.973199
0.975271
0.970951
0.960491
0.944431
0.923634
0.901028
0.878491
0.861116
0.972956
1.00022
1.03329
1.06803
1.10509
1.14279
1.18011
1.21516
1.24448
1.26543
1.27816
1.28103
1.27162
1.24743
1.21086
1.1556
1.10897
1.07319
1.05
1.04055
1.0434
1.05471
1.06823
1.0788
1.08158
1.07254
1.05373
1.02882
0.999881
0.97484
1.18312
1.2188
1.25745
1.2959
1.3355
1.37491
1.41174
1.44312
1.46528
1.47287
1.46561
1.44553
1.40685
1.35062
1.28418
1.20625
1.14529
1.09979
1.07064
1.05957
1.06505
1.08707
1.11777
1.15128
1.1825
1.20667
1.21979
1.2186
1.20426
1.18657
1.3148
1.36971
1.4172
1.45417
1.48321
1.50612
1.52057
1.52576
1.51898
1.49578
1.45703
1.40684
1.3434
1.27019
1.19012
1.10789
1.04574
1.00029
0.970104
0.958656
0.963612
0.986763
1.02289
1.06645
1.11317
1.15944
1.20231
1.24099
1.27237
1.30276
0.236445
0.248259
0.250001
0.247568
0.24074
0.230069
0.21613
0.1999
0.182528
0.165644
0.150493
0.145425
0.171687
0.224878
0.290253
0.36747
0.43653
0.502995
0.52935
0.517503
0.489148
0.452889
0.413159
0.373763
0.336559
0.302157
0.271356
0.241818
0.215532
0.188546
0.399984
0.411506
0.409012
0.401672
0.390308
0.375152
0.356497
0.33561
0.313719
0.292468
0.270625
0.268499
0.325657
0.4272
0.54579
0.68105
0.796776
0.900391
0.938084
0.916144
0.861496
0.794447
0.722994
0.653036
0.586968
0.526293
0.471973
0.418782
0.370811
0.324927
0.512068
0.516389
0.512446
0.506494
0.496269
0.481027
0.461234
0.438714
0.415233
0.392835
0.371331
0.373507
0.441989
0.561982
0.697425
0.84815
0.976463
1.08549
1.12877
1.11023
1.05316
0.9796
0.899688
0.820112
0.743929
0.673055
0.609358
0.54712
0.492312
0.445086
0.592342
0.589107
0.583985
0.578916
0.56992
0.555659
0.536616
0.514737
0.492091
0.470942
0.452236
0.459834
0.533195
0.659119
0.797437
0.94859
1.07814
1.18358
1.22861
1.21504
1.16152
1.08859
1.00746
0.925402
0.84597
0.771396
0.704224
0.63924
0.582387
0.53836
0.651908
0.643964
0.638167
0.633572
0.625499
0.61243
0.59484
0.574615
0.553913
0.535118
0.520162
0.533317
0.608742
0.733157
0.867755
1.01232
1.13676
1.23584
1.2804
1.27144
1.22379
1.15487
1.07588
0.994645
0.915265
0.840254
0.772524
0.707831
0.650731
0.610904
0.697508
0.687658
0.68157
0.677165
0.669763
0.657878
0.641952
0.623747
0.605405
0.589426
0.578533
0.597004
0.672912
0.791311
0.918525
1.05275
1.16853
1.25956
1.303
1.29736
1.25658
1.19387
1.11906
1.04036
0.962735
0.888956
0.822082
0.759273
0.703275
0.667754
0.734491
0.724023
0.717751
0.713319
0.706375
0.695567
0.681273
0.665125
0.649221
0.636153
0.629364
0.652727
0.7279
0.838082
0.955598
1.07749
1.18265
1.26516
1.307
1.30298
1.26924
1.21458
1.14571
1.07063
0.995713
0.923954
0.858615
0.79848
0.744809
0.713228
0.765684
0.755221
0.748762
0.744144
0.737464
0.727566
0.714754
0.700538
0.686988
0.676739
0.674025
0.70169
0.775046
0.876024
0.982731
1.09145
1.18612
1.25916
1.29918
1.29589
1.26563
1.21675
1.1573
1.08831
1.01776
0.949436
0.886617
0.829296
0.778884
0.750586
0.792771
0.782476
0.77577
0.77086
0.764279
0.755105
0.743583
0.731125
0.719768
0.712152
0.7135
0.744775
0.815315
0.906835
1.00246
1.09808
1.18211
1.24633
1.28404
1.28142
1.25595
1.21114
1.15661
1.09577
1.03064
0.967092
0.907786
0.854566
0.807867
0.782208
0.816641
0.806449
0.799407
0.79413
0.787537
0.778923
0.768515
0.757646
0.748321
0.743137
0.748483
0.78267
0.849447
0.931762
1.01662
1.09988
1.17361
1.22977
1.26477
1.26273
1.24112
1.20163
1.15197
1.09712
1.0383
0.979839
0.924941
0.875714
0.833132
0.809535
0.837657
0.827428
0.819987
0.814293
0.807632
0.799478
0.790053
0.780648
0.77323
0.770362
0.779449
0.815803
0.878213
0.951792
1.02663
1.09914
1.1631
1.21165
1.24363
1.24198
1.2236
1.18959
1.14467
1.09505
1.0428
0.989636
0.939337
0.894133
0.855359
0.833291
0.855836
0.845457
0.837624
0.831522
0.824801
0.817075
0.808578
0.800573
0.794975
0.794384
0.806849
0.844567
0.902344
0.967771
1.03366
1.09578
1.15094
1.19337
1.22235
1.22077
1.20499
1.1755
1.13556
1.09111
1.04488
0.997217
0.951529
0.910331
0.874792
0.853727
0.871038
0.860458
0.852325
0.845913
0.839222
0.831975
0.824436
0.817845
0.813976
0.815774
0.831139
0.869414
0.922572
0.9808
1.03825
1.09056
1.13744
1.17409
1.20051
1.20014
1.18652
1.16053
1.12532
1.08555
1.04418
1.00251
0.961481
0.92427
0.891505
0.870863
0.883088
0.872336
0.864097
0.857581
0.8511
0.844472
0.838022
0.832923
0.830796
0.835057
0.852861
0.890904
0.939837
0.9912
1.04071
1.0838
1.12288
1.15406
1.17821
1.17923
1.16789
1.14559
1.11456
1.07868
1.04158
1.00501
0.968735
0.935415
0.905727
0.884766
0.891733
0.881059
0.873036
0.866732
0.860737
0.854961
0.849836
0.846349
0.846134
0.852877
0.872727
0.909657
0.954471
0.999296
1.04126
1.07573
1.10745
1.13343
1.15549
1.15811
1.14903
1.13023
1.10339
1.07096
1.03723
1.00408
0.972633
0.943123
0.916617
0.895773
0.897552
0.886711
0.87942
0.873735
0.86859
0.863989
0.860537
0.858788
0.860651
0.86957
0.890941
0.926119
0.966836
1.00544
1.04029
1.06658
1.09133
1.11234
1.13236
1.13677
1.12989
1.11444
1.09146
1.06254
1.03173
1.00121
0.972445
0.946644
0.923117
0.903551
0.900905
0.890135
0.883805
0.879194
0.875344
0.87228
0.8705
0.870648
0.874736
0.88557
0.907829
0.940799
0.977389
1.01001
1.03812
1.0566
1.07471
1.09083
1.10886
1.11513
1.11058
1.09832
1.07894
1.05365
1.02537
0.996974
0.970053
0.945852
0.924768
0.907404
0.902169
0.892188
0.887031
0.883757
0.881455
0.880186
0.880301
0.882682
0.888929
0.901358
0.923832
0.954271
0.986681
1.01355
1.03522
1.04614
1.05782
1.06904
1.08503
1.09317
1.09112
1.08197
1.06607
1.04449
1.01853
0.991879
0.9663
0.943245
0.923219
0.907271
0.902199
0.893449
0.889718
0.888022
0.88761
0.888426
0.890847
0.895534
0.903831
0.917524
0.939565
0.967245
0.995406
1.01673
1.03222
1.03568
1.04091
1.0473
1.06103
1.07079
1.0715
1.0654
1.05306
1.03497
1.0116
0.986508
0.961917
0.939582
0.920285
0.905583
0.901256
0.894559
0.892545
0.89274
0.894726
0.898026
0.902932
0.909947
0.920171
0.934829
0.955896
0.980646
1.00449
1.02045
1.03001
1.02594
1.02454
1.02613
1.03719
1.04804
1.05185
1.04888
1.04006
1.02542
1.00492
0.981424
0.957637
0.935719
0.916882
0.903041
0.900562
0.896178
0.896252
0.899118
0.903905
0.909973
0.917501
0.926865
0.938931
0.954324
0.974074
0.995709
1.01523
1.02599
1.02987
1.01788