/*--------------------------------*- C++ -*----------------------------------*\
| =========                 |                                                 |
| \\      /  F ield         | OpenFOAM: The Open Source CFD Toolbox           |
|  \\    /   O peration     | Version:  5.0                                   |
|   \\  /    A nd           | Web:      www.OpenFOAM.org                      |
|    \\/     M anipulation  |                                                 |
\*---------------------------------------------------------------------------*/
FoamFile
{
    version     2.0;
    format      ascii;
    class       volScalarField;
    location    "400/air";
    object      nut;
}
// * * * * * * * * * * * * * * * * * * * * * * * * * * * * * * * * * * * * * //

dimensions      [0 2 -1 0 0 0 0];

internalField   nonuniform List<scalar> 
243000
(
0.000166433
0.000164363
0.000159291
0.000152935
0.000145739
0.000138054
0.000130125
0.000122157
0.000114349
0.000106964
0.000100379
9.48611e-05
8.97238e-05
8.48818e-05
7.92505e-05
7.85812e-05
0.000100244
0.000131005
0.000141939
0.000145419
0.000144579
0.000141817
0.000137625
0.000132698
0.000127476
0.000122688
0.000120857
0.000121945
0.000127078
0.000135995
0.000776761
0.000784975
0.000777974
0.000764574
0.000747822
0.000728428
0.000706695
0.000683016
0.000657987
0.000632731
0.000608754
0.000587642
0.000566206
0.00054558
0.00051818
0.00053558
0.000701228
0.000875445
0.000932427
0.000940775
0.000919158
0.000885449
0.000842253
0.000795893
0.000748975
0.000705837
0.000673605
0.000653502
0.000651612
0.000659837
0.000862403
0.000870462
0.000861472
0.000845721
0.000826374
0.000804368
0.000780146
0.000754253
0.000727341
0.000700674
0.000675846
0.000654114
0.000631265
0.000608791
0.000579019
0.000607324
0.000797384
0.000974603
0.00103548
0.00104685
0.00102641
0.000992467
0.000948527
0.000901245
0.000853552
0.000809645
0.000775549
0.000752739
0.000749177
0.000758399
0.000920854
0.000928522
0.000919305
0.000903283
0.000883338
0.000860487
0.000835302
0.000808448
0.000780648
0.000753349
0.000728179
0.000706055
0.000681953
0.000657216
0.000624708
0.000660615
0.000864145
0.0010386
0.00110114
0.00111522
0.00109698
0.00106424
0.00102135
0.000975019
0.000928353
0.00088542
0.000851266
0.000827823
0.000822882
0.000833007
0.000963886
0.000970668
0.000961746
0.000946189
0.000926511
0.000903691
0.000878358
0.000851264
0.000823205
0.000795735
0.000770413
0.000747842
0.000722447
0.000695171
0.000659571
0.000700962
0.000911234
0.00108051
0.00114368
0.00116015
0.00114452
0.00111375
0.0010728
0.00102834
0.000983592
0.000942534
0.000909353
0.000886479
0.000880472
0.000891244
0.000996868
0.0010026
0.000994101
0.000979257
0.000960211
0.000937848
0.000912801
0.000885872
0.000857921
0.000830522
0.000805073
0.000781913
0.00075509
0.000724946
0.000686052
0.000731432
0.00094386
0.00110687
0.00117051
0.001189
0.00117609
0.00114769
0.00110919
0.00106707
0.0010247
0.000985969
0.000954426
0.000932764
0.000926212
0.00093731
0.00102275
0.00102745
0.00101938
0.00100531
0.000987034
0.000965315
0.00094077
0.000914226
0.000886572
0.00085934
0.000833719
0.00080979
0.000781367
0.000748013
0.000705987
0.000754183
0.000965332
0.00112149
0.00118583
0.00120615
0.00119591
0.00117014
0.00113437
0.00109487
0.00105514
0.00101896
0.00098945
0.000969393
0.000962815
0.000974017
0.0010433
0.00104708
0.00103941
0.00102611
0.00100862
0.000987609
0.000963656
0.00093759
0.000910316
0.00088326
0.000857378
0.000832488
0.000802303
0.000765429
0.000722019
0.000772311
0.000977805
0.00112765
0.00119206
0.00121451
0.00120673
0.00118378
0.00115098
0.00111429
0.0010773
0.00104378
0.00101655
0.000998321
0.000992154
0.00100335
0.00105963
0.00106264
0.00105536
0.00104279
0.00102606
0.00100574
0.000982384
0.000956822
0.000929937
0.000903023
0.000876764
0.000850752
0.000818565
0.000778058
0.000736971
0.000789406
0.00098381
0.00112838
0.00119258
0.00121603
0.0012104
0.0011906
0.00116108
0.00112736
0.00109303
0.00106212
0.00103729
0.00102103
0.00101561
0.00102678
0.0010725
0.00107488
0.00106797
0.00105608
0.00104005
0.00102037
0.000997589
0.000972511
0.000945983
0.000919149
0.000892404
0.000865119
0.000830671
0.000786771
0.000750306
0.00080464
0.000985339
0.00112351
0.00118703
0.00121213
0.00120827
0.00119075
0.00116475
0.00113463
0.00110363
0.00107533
0.00105288
0.00103866
0.00103421
0.00104538
0.00108238
0.00108425
0.00107772
0.00106647
0.00105107
0.00103197
0.00100971
0.000985068
0.000958848
0.000932026
0.000904714
0.000875933
0.00083908
0.000793093
0.000762192
0.000818056
0.000983906
0.00111398
0.00117717
0.00120387
0.00120166
0.00118661
0.00116324
0.00113653
0.00110931
0.00108425
0.00106421
0.00105207
0.00104872
0.00105992
0.00108956
0.00109105
0.0010849
0.00107423
0.00105937
0.00104078
0.00101898
0.000994752
0.000968813
0.000941941
0.000913921
0.000883461
0.000844215
0.000799608
0.000773085
0.000829844
0.000982515
0.00110159
0.00116387
0.00119202
0.00119139
0.00117871
0.0011581
0.00113426
0.00111046
0.00108904
0.00107189
0.00106183
0.00105969
0.00107095
0.00109421
0.00109541
0.00108963
0.0010795
0.00106516
0.00104702
0.00102561
0.0010017
0.000975942
0.000948959
0.000920126
0.000887949
0.000847031
0.000805799
0.00078318
0.000840131
0.000980769
0.00108971
0.0011483
0.0011774
0.00117813
0.00116765
0.00114974
0.00112877
0.00110802
0.0010899
0.0010761
0.00106827
0.00106751
0.00107884
0.00109646
0.00109741
0.00109205
0.00108246
0.0010686
0.00105088
0.00102984
0.00100622
0.000980612
0.00095342
0.000923749
0.000890108
0.000849922
0.00081176
0.0007926
0.000849029
0.000978546
0.0010788
0.00113446
0.00116229
0.00116307
0.00115416
0.00113866
0.00112041
0.00110268
0.00108752
0.00107679
0.00107157
0.00107219
0.00108375
0.00109611
0.00109721
0.00109236
0.00108327
0.00106984
0.0010525
0.0010318
0.00100848
0.000983013
0.000955606
0.000925185
0.000890833
0.000853055
0.000817545
0.00080139
0.000856637
0.000975837
0.00106858
0.00112158
0.0011484
0.0011494
0.00114118
0.00112675
0.00110975
0.00109476
0.00108244
0.00107453
0.00107179
0.00107381
0.00108591
0.00109347
0.00109467
0.00109038
0.00108189
0.00106895
0.00105205
0.00103176
0.00100875
0.000983434
0.000955887
0.000925115
0.000892088
0.000856314
0.000823162
0.000809577
0.000863039
0.000972649
0.00105878
0.00110934
0.00113535
0.00113669
0.00112912
0.00111579
0.00110025
0.00108624
0.0010749
0.0010695
0.001069
0.00107259
0.00108545
0.00108826
0.00108971
0.00108605
0.00107816
0.00106574
0.0010493
0.00102945
0.00100687
0.00098182
0.000954914
0.00092545
0.000893687
0.00085968
0.000828627
0.000817185
0.000868306
0.000968978
0.00104921
0.00109751
0.00112285
0.00112458
0.00111767
0.00110543
0.00109129
0.00107835
0.00106799
0.00106275
0.00106337
0.00106827
0.00108203
0.00108047
0.00108233
0.00107942
0.00107219
0.00106027
0.00104434
0.00102539
0.00100394
0.0009801
0.000954298
0.000926038
0.000895498
0.000863098
0.00083392
0.000824217
0.000872502
0.000964721
0.00103968
0.00108588
0.00111066
0.00111283
0.00110658
0.00109542
0.0010826
0.00107076
0.00106137
0.00105645
0.00105659
0.00106116
0.00107567
0.00107134
0.00107374
0.0010718
0.00106536
0.00105428
0.00103938
0.00102152
0.00100119
0.000978546
0.00095386
0.00092676
0.000897425
0.000866536
0.000839038
0.000830673
0.000875701
0.000959984
0.00103007
0.00107429
0.00109857
0.00110121
0.00109566
0.00108557
0.00107401
0.00106328
0.00105484
0.0010503
0.00105016
0.00105397
0.00106666
0.00106275
0.0010655
0.00106437
0.00105865
0.00104838
0.00103448
0.00101767
0.000998448
0.000977001
0.000953469
0.000927535
0.000899414
0.000869966
0.000843974
0.000836545
0.000877913
0.000954739
0.00102025
0.00106259
0.00108639
0.00108951
0.00108469
0.00107568
0.00106538
0.00105576
0.00104823
0.00104411
0.00104379
0.00104699
0.00105786
0.0010543
0.0010573
0.00105686
0.00105183
0.00104237
0.00102943
0.00101369
0.000995593
0.000975362
0.000953029
0.000928305
0.000901435
0.000873383
0.000848733
0.000841849
0.000879259
0.000948951
0.0010101
0.00105064
0.00107397
0.00107756
0.00107347
0.00106559
0.00105652
0.00104799
0.00104133
0.00103766
0.00103724
0.0010399
0.00104932
0.00104567
0.00104887
0.00104907
0.00104472
0.00103608
0.0010241
0.00100946
0.000992546
0.000973564
0.000952485
0.000929039
0.000903474
0.000876784
0.000853333
0.000846615
0.000879944
0.000942627
0.00099955
0.00103832
0.00106115
0.00106521
0.00106187
0.00105514
0.00104726
0.00103981
0.00103398
0.00103073
0.00103025
0.00103244
0.00104061
0.00103658
0.00104001
0.00104082
0.00103719
0.0010294
0.00101841
0.00100491
0.000989256
0.000971579
0.000951824
0.000929739
0.000905548
0.00088021
0.000857843
0.00085092
0.000879772
0.000935795
0.00098857
0.00102556
0.00104781
0.00105236
0.00104978
0.00104418
0.00103748
0.00103105
0.00102601
0.00102316
0.00102264
0.00102442
0.00103142
0.00102679
0.00103055
0.00103199
0.00102913
0.00102224
0.00101231
0.00100002
0.000985707
0.000969417
0.000951078
0.000930492
0.000907764
0.000883794
0.000862442
0.000855002
0.000879196
0.000928656
0.00097727
0.0010124
0.00103396
0.00103895
0.00103712
0.00103259
0.00102701
0.00102159
0.0010173
0.00101481
0.00101424
0.00101562
0.00102154
0.00101617
0.00102038
0.00102249
0.00102046
0.00101457
0.0010058
0.000994831
0.000981947
0.00096719
0.000950487
0.000931611
0.000910449
0.000888018
0.000867728
0.000859571
0.000878975
0.000921849
0.000966135
0.000999206
0.00101989
0.00102522
0.00102404
0.00102048
0.00101594
0.00101145
0.00100785
0.00100567
0.00100502
0.001006
0.00101086
0.00100467
0.00100946
0.0010123
0.00101122
0.00100645
0.000999039
0.00098963
0.000978391
0.000965651
0.000951028
0.000934095
0.00091503
0.00089461
0.000875703
0.000866842
0.000881314
0.00091734
0.00095682
0.000987373
0.00100673
0.00101211
0.00101131
0.00100845
0.00100471
0.00100096
0.000997883
0.000995876
0.000995077
0.000995581
0.000999417
0.000992837
0.000998382
0.00100209
0.00100222
0.00099889
0.000993416
0.000986258
0.000977722
0.000967697
0.000956051
0.000942397
0.000926715
0.000909508
0.000892923
0.0008837
0.000893009
0.000921294
0.000954719
0.000981569
0.000998522
0.00100315
0.00100209
0.000999208
0.000995599
0.000991974
0.000988939
0.000986634
0.000985355
0.000985188
0.000987856
0.000984727
0.000991626
0.000997131
0.000999459
0.000999188
0.000997577
0.000994893
0.000991345
0.00098672
0.000980751
0.000973107
0.000963504
0.000951881
0.0009394
0.000930608
0.0009343
0.000952774
0.000977115
0.000997385
0.00100958
0.00101168
0.00100874
0.00100419
0.000999012
0.000993829
0.000989043
0.000985034
0.000981894
0.000979921
0.00098055
0.00101777
0.00102744
0.00103698
0.00104524
0.00105261
0.00105989
0.00106621
0.00107168
0.00107589
0.00107849
0.00107956
0.00107832
0.00107388
0.00106652
0.00105868
0.00105612
0.00106238
0.00107366
0.0010832
0.00108741
0.00108463
0.00107834
0.00107069
0.00106219
0.00105329
0.00104434
0.00103573
0.0010275
0.00102032
0.00101577
0.00129123
0.00130043
0.00130985
0.00131912
0.00133004
0.00134093
0.00134742
0.00135173
0.00135393
0.00135479
0.00135584
0.00135451
0.0013496
0.001342
0.00133314
0.00132654
0.00132329
0.00132416
0.00132552
0.0013264
0.00132585
0.0013255
0.00132517
0.00132395
0.00132152
0.00131768
0.0013126
0.00130622
0.00129922
0.00129229
0.000205241
0.000205497
0.000199638
0.000191326
0.000181545
0.00017093
0.000159832
0.000148554
0.00013743
0.000126967
0.000117902
0.000110802
0.000105018
0.000104645
0.000112748
0.000137227
0.000160478
0.000182815
0.000193989
0.000198269
0.000197868
0.000195263
0.000191255
0.000186697
0.000182119
0.000178035
0.000175335
0.000173339
0.000174442
0.000176847
0.000957902
0.000977989
0.000896425
0.000804472
0.00072623
0.000662258
0.000609352
0.000565983
0.000531125
0.000504077
0.000477155
0.000456046
0.000447794
0.000474682
0.000535422
0.000661248
0.000768595
0.000891577
0.000957564
0.000969795
0.000943497
0.00090908
0.000868381
0.000828688
0.00078982
0.000757379
0.000734989
0.00071143
0.000681583
0.000672472
0.00163818
0.00175069
0.00168053
0.0015518
0.00141966
0.00130089
0.00119797
0.00111223
0.00104279
0.000986129
0.000928666
0.000879542
0.000850343
0.00088358
0.000989444
0.00120798
0.00141555
0.00163338
0.00176091
0.00179785
0.00175705
0.00169422
0.00161796
0.00153917
0.00146761
0.00141027
0.0013663
0.00132378
0.00127234
0.00127208
0.00221538
0.00240279
0.00237477
0.00224608
0.00208609
0.0019275
0.00178245
0.00165897
0.00155185
0.00146237
0.00137309
0.00129486
0.0012403
0.00127474
0.00141302
0.00169779
0.00198938
0.00227358
0.00244998
0.00251652
0.00247592
0.00239703
0.00229719
0.00219572
0.00210197
0.0020205
0.00195966
0.00190528
0.0018472
0.00186228
0.00272171
0.00295617
0.00297892
0.00286551
0.00269424
0.00250931
0.00233164
0.00217572
0.00203371
0.00191349
0.0017943
0.0016888
0.0016091
0.0016418
0.00180043
0.00212943
0.00248204
0.00281423
0.0030259
0.00312097
0.00309106
0.00300701
0.00289493
0.00278239
0.0026763
0.00258567
0.00251086
0.00244717
0.00238604
0.00242209
0.0031755
0.00344313
0.00350804
0.00341369
0.00324001
0.00303841
0.00283666
0.00265216
0.0024824
0.00233363
0.00218738
0.00205765
0.00195503
0.00198229
0.00215235
0.0025069
0.00289982
0.00326398
0.00350294
0.00362245
0.00360993
0.00353004
0.00341551
0.00329838
0.00318917
0.0030968
0.00302342
0.00295774
0.00289689
0.00295209
0.00359334
0.00387932
0.00397178
0.00389683
0.00372525
0.00351367
0.00329453
0.00308664
0.00289461
0.00272071
0.00255063
0.00239991
0.00227711
0.00229513
0.00246534
0.00283368
0.00325006
0.00363025
0.00389478
0.0040341
0.00404172
0.00397465
0.00386689
0.00375072
0.00364508
0.00355554
0.00348759
0.00343078
0.00337733
0.00344628
0.00398005
0.00427202
0.00437981
0.00432056
0.00415281
0.00393586
0.0037046
0.00347863
0.00326891
0.00307391
0.00288362
0.00271472
0.00257405
0.00258486
0.00273838
0.00311167
0.00353942
0.00392579
0.00420843
0.00436915
0.0043944
0.0043489
0.004257
0.00414996
0.00404795
0.00396723
0.00390674
0.00386136
0.00381909
0.00389811
0.0043363
0.00462452
0.004738
0.00468931
0.00452544
0.0043064
0.00406718
0.00382803
0.00360443
0.00339319
0.00318625
0.0030017
0.00284759
0.00284176
0.00297143
0.00334079
0.0037809
0.00418261
0.00446834
0.00463714
0.00466835
0.00464437
0.00459172
0.00450477
0.00440984
0.00433686
0.00428563
0.00425215
0.00422248
0.00430902
0.00466152
0.00493774
0.00504867
0.00500456
0.00484557
0.00462693
0.00438319
0.00413529
0.00390036
0.00367786
0.00345849
0.00326037
0.0030943
0.00306866
0.00317117
0.00353132
0.00398929
0.00436933
0.00466067
0.00484743
0.00488793
0.00487944
0.00483564
0.00479241
0.00473213
0.00467139
0.00462863
0.00460634
0.00458848
0.00467906
0.00495397
0.00521134
0.00531328
0.00526941
0.0051156
0.00489923
0.00465405
0.0044017
0.00415747
0.00392532
0.00369852
0.00349093
0.00331375
0.00326583
0.00334926
0.00369475
0.00414231
0.00451384
0.00480562
0.00500627
0.00505751
0.00506659
0.00504112
0.00501047
0.00498943
0.00496339
0.00493984
0.00492718
0.00491785
0.00500769
0.00521
0.00544426
0.00553305
0.00548685
0.00533766
0.00512506
0.00488124
0.00462794
0.00438033
0.00414234
0.0039097
0.00369445
0.00350839
0.00343959
0.00350947
0.00383366
0.00426142
0.00462455
0.00491088
0.00512127
0.00518303
0.00520936
0.00520632
0.00519233
0.00518781
0.00519799
0.00520619
0.00521449
0.00521103
0.00529427
0.00542797
0.00563438
0.00570862
0.00565883
0.0055134
0.0053059
0.0050661
0.00481549
0.00456814
0.00432815
0.00409237
0.00387292
0.00368229
0.00359383
0.00365113
0.00394835
0.00434788
0.00470092
0.00498566
0.00519982
0.00527018
0.00531167
0.00533003
0.005339
0.00535022
0.00537801
0.00541755
0.00545561
0.00547141
0.00554006
0.00561017
0.00578145
0.00583951
0.00578587
0.00564351
0.0054424
0.00520949
0.00496595
0.00472358
0.00448522
0.00424917
0.00402922
0.00383164
0.00372742
0.00377233
0.0040374
0.00440145
0.0047355
0.00501135
0.00524167
0.00532454
0.00537712
0.00541412
0.00544477
0.00547806
0.00552086
0.00557666
0.00563907
0.00568506
0.00574476
0.00575603
0.00589281
0.00593131
0.00587328
0.00573483
0.00554196
0.00531823
0.0050832
0.00485058
0.00461734
0.0043856
0.00416508
0.00395554
0.00383893
0.00386963
0.00409928
0.00442247
0.00472998
0.00499211
0.00522964
0.00532498
0.00539902
0.00545822
0.00550986
0.00556343
0.00562671
0.0056963
0.00577162
0.00583388
0.00589876
0.00586887
0.00597229
0.00599064
0.00592788
0.00579432
0.00561201
0.0054008
0.00517785
0.00495628
0.00473173
0.00450031
0.00426892
0.00405369
0.00392611
0.00394111
0.00413278
0.00441208
0.00468792
0.00493207
0.00516804
0.00527514
0.00536913
0.00545001
0.00552341
0.00560088
0.00568656
0.00577546
0.00586224
0.00593413
0.00600011
0.00593671
0.00601527
0.00602096
0.00595313
0.00582419
0.00565406
0.00545737
0.00524772
0.00503518
0.00481273
0.00457737
0.00434121
0.00412585
0.00399282
0.00398585
0.00413728
0.00437264
0.00461402
0.00483581
0.00506143
0.00517862
0.00528986
0.00539125
0.00548571
0.00558375
0.0056898
0.00580292
0.00590708
0.0059922
0.00605892
0.00595824
0.00601609
0.00601223
0.00594945
0.00582933
0.0056732
0.00548749
0.00528735
0.00507927
0.00485776
0.00462023
0.0043836
0.00417123
0.0040289
0.00400241
0.00411175
0.00429643
0.00450002
0.00470398
0.00491788
0.00504675
0.00517181
0.00529053
0.00540288
0.00551795
0.00564073
0.00577156
0.00589799
0.00600086
0.0060736
0.00593576
0.00596727
0.00595921
0.00590307
0.00579138
0.00564581
0.00547289
0.00528411
0.00508227
0.00486564
0.00463045
0.00439707
0.00418916
0.0040367
0.00399021
0.00406214
0.00420097
0.00436835
0.00454726
0.0047415
0.00488342
0.00503235
0.00516597
0.00529167
0.00541815
0.00555252
0.00569436
0.00583368
0.00595377
0.0060509
0.00583382
0.00585582
0.00584836
0.00579862
0.0057043
0.005573
0.00541503
0.00523814
0.00504734
0.00483853
0.00460907
0.00438156
0.00417831
0.00401501
0.00394876
0.00398457
0.00408141
0.00421428
0.00436817
0.00453985
0.00468494
0.00484513
0.005004
0.00515344
0.00529566
0.00543716
0.00558333
0.0057269
0.00585507
0.00596815
0.00567764
0.00569308
0.00568959
0.00564869
0.00557317
0.00545707
0.00531433
0.0051547
0.00497689
0.0047772
0.00455534
0.00433513
0.00413522
0.00396223
0.00387704
0.00387974
0.0039392
0.00404101
0.00417047
0.00431946
0.0044637
0.00463035
0.00480028
0.00496366
0.00512101
0.00527372
0.00542542
0.00557078
0.00569989
0.00581512
0.00547255
0.00548952
0.00549079
0.00546405
0.00540068
0.00530327
0.00518022
0.00503683
0.00487046
0.00467908
0.0044649
0.00425178
0.0040531
0.00387429
0.00377218
0.00374774
0.00377847
0.00385078
0.00395663
0.00408418
0.00422536
0.00439501
0.00457325
0.00474455
0.00490879
0.00506552
0.00521688
0.00535931
0.00548845
0.00560238
0.00523165
0.00525205
0.00526445
0.00525074
0.00519978
0.00511877
0.00501192
0.00488125
0.00472282
0.00453696
0.00432819
0.00411966
0.0039215
0.00374214
0.00362748
0.00358415
0.00359469
0.00364379
0.00372657
0.00383472
0.0039738
0.00414376
0.00432549
0.00450148
0.00466683
0.00482389
0.00497416
0.00511465
0.00523905
0.00534486
0.00496039
0.00499179
0.00501584
0.00501202
0.00497191
0.00490062
0.0048032
0.00467804
0.00452138
0.00433584
0.00412861
0.00392134
0.00372474
0.00355186
0.00343176
0.00338059
0.00337991
0.00341703
0.00348028
0.0035708
0.00370806
0.00387536
0.00405326
0.00422713
0.00439505
0.00455368
0.00470134
0.00483578
0.00495337
0.00505169
0.0046684
0.00471101
0.00474102
0.00474023
0.00470337
0.00463465
0.00453608
0.00440615
0.00424395
0.00405404
0.00384643
0.00364082
0.00344999
0.00329086
0.00317783
0.00313057
0.00313203
0.00316022
0.00321051
0.00329183
0.00342374
0.00358488
0.00375941
0.00393383
0.00410339
0.00426285
0.00440914
0.00453912
0.00464854
0.00473848
0.00434662
0.00439375
0.00441982
0.00441039
0.00436434
0.00428645
0.0041782
0.00404001
0.00387211
0.00368151
0.00348206
0.00328906
0.00311587
0.00297942
0.00288689
0.00285227
0.00285833
0.00288678
0.00293087
0.00300649
0.00312337
0.00326862
0.00343127
0.00359948
0.00376652
0.00392573
0.00407234
0.00420164
0.00430821
0.00439482
0.003961
0.00400075
0.00401033
0.0039818
0.00392016
0.00383218
0.00372074
0.00358787
0.00343585
0.00327209
0.00310697
0.00295042
0.00281429
0.00271056
0.00264436
0.00261995
0.00262897
0.00265603
0.00269502
0.00275572
0.00284424
0.00295697
0.00308805
0.00323051
0.00337807
0.00352467
0.00366453
0.00379162
0.00389805
0.00398566
0.00347922
0.00350579
0.00350302
0.00347021
0.00341546
0.00334749
0.00326628
0.00317496
0.00307392
0.0029668
0.00286047
0.00276006
0.00267022
0.00260101
0.00255343
0.0025323
0.00253632
0.00255528
0.00258065
0.00261972
0.00267445
0.00274493
0.00282673
0.00291873
0.00301676
0.00311897
0.00322257
0.0033227
0.00340959
0.00348398
0.00305134
0.00308
0.00309047
0.00308331
0.00306497
0.00304103
0.00300791
0.002966
0.00291459
0.00284928
0.00278213
0.00271841
0.00266295
0.00261431
0.00257674
0.00255886
0.00255901
0.00256898
0.00258289
0.0026033
0.00262956
0.00266231
0.00270595
0.00275983
0.00281552
0.00287385
0.00293381
0.00298744
0.00302384
0.00305144
0.00285486
0.00288983
0.00290895
0.0029136
0.00291131
0.00290393
0.00288731
0.00286344
0.00283481
0.00279821
0.00276226
0.00272658
0.00269149
0.00266044
0.00263906
0.00263221
0.00263431
0.002643
0.00265167
0.00266412
0.0026776
0.00269589
0.00272023
0.00274454
0.00276774
0.00278803
0.00280614
0.00282555
0.00283938
0.00284958
0.000234396
0.000232433
0.000225303
0.000215997
0.000205207
0.000193497
0.000181197
0.000168661
0.000156325
0.000144852
0.000135033
0.000128476
0.000128683
0.000142565
0.000162363
0.000186055
0.000207359
0.000228379
0.000238891
0.000242152
0.00024114
0.000238036
0.000233637
0.000228743
0.000223826
0.000219186
0.00021534
0.000211448
0.000209113
0.000206597
0.0011547
0.00124094
0.00116308
0.00105934
0.000967427
0.000890611
0.000824962
0.00076993
0.000724038
0.000686282
0.000639222
0.000609806
0.000636235
0.000739783
0.000866499
0.00102946
0.00117774
0.00132982
0.00140354
0.00140484
0.00135776
0.00129971
0.00123366
0.00117019
0.0011096
0.00105418
0.00100337
0.000943205
0.00086916
0.000813634
0.00206313
0.0022688
0.00223121
0.00209754
0.00194506
0.00179969
0.00166821
0.00155499
0.0014595
0.00138022
0.00128587
0.00121815
0.00124856
0.00141872
0.00164138
0.00193534
0.00220268
0.00245681
0.00260921
0.00263939
0.00256677
0.00246234
0.00233852
0.00221605
0.00209934
0.00199107
0.00189149
0.00178415
0.00165976
0.00158981
0.00283179
0.00315619
0.00319134
0.00306812
0.00288599
0.00268967
0.00250118
0.00233315
0.00218854
0.00206649
0.00192807
0.00182357
0.00184822
0.00206727
0.00235045
0.00273463
0.00308977
0.00340647
0.00362335
0.00369209
0.00361583
0.00348493
0.00332197
0.00315684
0.00299947
0.00285617
0.00272823
0.00259449
0.00244663
0.00238648
0.00353693
0.00394858
0.0040545
0.00395244
0.00375541
0.00352301
0.00328759
0.00307153
0.00288208
0.00271941
0.00254267
0.00240599
0.00242498
0.00267536
0.00299051
0.00343093
0.00384246
0.00420446
0.00446971
0.00457564
0.0045112
0.00437107
0.00418603
0.0039929
0.00380854
0.00364662
0.00350431
0.00335975
0.00320462
0.00316909
0.00420468
0.00467551
0.00484063
0.00475811
0.00455182
0.00429304
0.0040197
0.00376238
0.00353314
0.00333178
0.00312377
0.00296055
0.00298102
0.00323797
0.00356866
0.00403793
0.00448154
0.00487572
0.00517995
0.00531667
0.00527476
0.00514072
0.00494983
0.00474113
0.00454021
0.00436675
0.00422214
0.00407835
0.00392795
0.00392329
0.00484643
0.00535459
0.00556119
0.00549148
0.0052776
0.00499836
0.0046957
0.00440348
0.00413968
0.00390564
0.00366783
0.00348518
0.00351925
0.00375963
0.00409064
0.00456882
0.00502616
0.00543762
0.00577831
0.00593749
0.00592441
0.00581044
0.00563151
0.00541957
0.00521035
0.00502932
0.00488814
0.00475509
0.00461885
0.00464698
0.00546544
0.00599014
0.00622061
0.00615577
0.00593452
0.00563931
0.00531378
0.00499403
0.00470093
0.00443867
0.00417892
0.00398702
0.00402775
0.00424111
0.00456126
0.00503422
0.00549107
0.00592919
0.00629682
0.00645623
0.00645619
0.00638587
0.00624416
0.0060447
0.00583416
0.00564967
0.00551083
0.0053946
0.0052805
0.00533796
0.00605974
0.00658255
0.00681981
0.0067521
0.00652366
0.00621632
0.0058735
0.00553268
0.00521665
0.00493189
0.0046595
0.00446484
0.00449941
0.00468285
0.00498418
0.00544236
0.00590821
0.0063289
0.00672019
0.00689206
0.0069125
0.00684417
0.00673504
0.00659493
0.00641381
0.00624016
0.00610252
0.00600172
0.00591313
0.00599355
0.00662375
0.00712791
0.00735326
0.00728058
0.00704589
0.00672993
0.0063752
0.0060195
0.00568674
0.00538523
0.00510317
0.00490813
0.00493043
0.00508521
0.0053619
0.00579843
0.00624974
0.00666402
0.00707198
0.00725636
0.00729598
0.00725395
0.00715447
0.00704666
0.00692276
0.00678242
0.00666354
0.00658065
0.00651432
0.00660919
0.00714956
0.00762046
0.00782063
0.00774188
0.00750229
0.00718121
0.00681966
0.00645507
0.00611158
0.00579893
0.00550922
0.00531567
0.00532436
0.00544851
0.00569534
0.00610583
0.00653902
0.00694083
0.00735806
0.00755557
0.00761564
0.00760096
0.00752787
0.00744041
0.00736062
0.00727127
0.00718543
0.00712574
0.00707934
0.00717868
0.00762879
0.00805527
0.00822322
0.00813728
0.00789435
0.00757165
0.00720826
0.00684049
0.006492
0.00617343
0.00587797
0.00568711
0.00568012
0.00577267
0.00599372
0.00636999
0.00677744
0.00716271
0.0075818
0.00779306
0.00787453
0.00789003
0.00785234
0.00778848
0.00773611
0.00770275
0.00765922
0.00763126
0.00760379
0.00769548
0.00805285
0.0084287
0.00856237
0.00846817
0.00822391
0.00790325
0.0075428
0.0071773
0.00682901
0.00650932
0.00621043
0.00602197
0.00599742
0.00606316
0.00625278
0.00658652
0.00696018
0.00732275
0.0077401
0.00796897
0.00807263
0.00812038
0.00811751
0.00808854
0.00806418
0.0080611
0.00807575
0.00808534
0.0080873
0.00815495
0.00841359
0.0087376
0.00883864
0.00873582
0.008493
0.00817816
0.00782531
0.00746723
0.00712386
0.00680705
0.00650604
0.00632014
0.00627703
0.00631428
0.00646721
0.00675075
0.00708222
0.00741807
0.00782334
0.00807011
0.00820477
0.00828903
0.00832322
0.00833506
0.00833972
0.00836628
0.00841538
0.00847429
0.00851112
0.00855842
0.00871885
0.00897946
0.00905173
0.00894155
0.00870403
0.00839873
0.00805768
0.00771206
0.00737768
0.0070659
0.00677007
0.00658145
0.00651277
0.00651985
0.00663119
0.00685799
0.00714004
0.00744474
0.00782824
0.00809153
0.00825737
0.00838253
0.00846201
0.00851561
0.00855578
0.0086112
0.00868507
0.00877474
0.00885309
0.00889734
0.00896768
0.0091681
0.00920478
0.0090869
0.00885973
0.00856692
0.00824045
0.00791284
0.00759376
0.00729098
0.00699963
0.00680461
0.00670468
0.00667352
0.00673834
0.00690396
0.00713101
0.00739977
0.00775285
0.00802853
0.00822497
0.00839393
0.00852131
0.00862053
0.00870358
0.00878921
0.00888696
0.00899329
0.00909203
0.00915475
0.00916101
0.00930284
0.00930414
0.00918098
0.00896619
0.00869267
0.00838331
0.00806634
0.00775546
0.00745727
0.0071655
0.00696464
0.00684709
0.0067769
0.00678469
0.00688534
0.0070542
0.00728188
0.00759728
0.00787755
0.00810394
0.00831616
0.00849332
0.00864213
0.00876849
0.00888813
0.00901256
0.00913961
0.00925267
0.009323
0.00928799
0.00937176
0.00933601
0.00921871
0.0090111
0.00874941
0.00845648
0.00815588
0.00785822
0.00756695
0.00727436
0.00705999
0.0069164
0.00680881
0.0067646
0.00679983
0.00690556
0.00708588
0.00736548
0.00765949
0.00792108
0.00817508
0.00839801
0.00859487
0.00876219
0.00891588
0.00906751
0.0092148
0.00934159
0.00942497
0.00932169
0.00934735
0.00930575
0.00918801
0.00898946
0.00874165
0.00846665
0.00818263
0.00789691
0.00761117
0.00731903
0.00708827
0.00691635
0.00676983
0.0066743
0.00664654
0.00669386
0.00682771
0.00706353
0.00734725
0.007631
0.00794293
0.00824672
0.00849155
0.00869723
0.00887891
0.00905501
0.00921856
0.00935599
0.00945623
0.00924789
0.00924673
0.00920408
0.00908471
0.00889698
0.00866529
0.00840812
0.00813923
0.00786308
0.00758069
0.00728745
0.00704259
0.0068387
0.00665406
0.00651027
0.00642488
0.00641812
0.00650709
0.00669862
0.00696591
0.00726007
0.00759797
0.00794498
0.00826599
0.00854387
0.0087802
0.00898042
0.00915738
0.00930292
0.00941346
0.00908473
0.0090722
0.00902125
0.00890401
0.00872926
0.00851395
0.0082727
0.00801598
0.00774591
0.00746386
0.00716786
0.00690854
0.00667572
0.00645499
0.00626884
0.0061345
0.00608216
0.00612888
0.00627739
0.00652469
0.00682181
0.00717378
0.00755058
0.00790965
0.00822623
0.00850992
0.00876104
0.00897463
0.00914049
0.00926058
0.00881589
0.00880346
0.00874942
0.00864091
0.00847974
0.00827865
0.00804954
0.00780015
0.00753166
0.00724632
0.00694588
0.00667208
0.00641559
0.0061653
0.00594614
0.00577527
0.00569018
0.00569761
0.00580691
0.00603034
0.00632628
0.00668288
0.00707579
0.00745446
0.00779779
0.00810904
0.00839093
0.00863583
0.00883319
0.00897752
0.00843529
0.0084317
0.00838469
0.00828561
0.00813525
0.00794431
0.00772239
0.00747535
0.00720418
0.0069122
0.00660634
0.00632005
0.00604637
0.00577972
0.00554002
0.00534879
0.00524406
0.00522065
0.00529661
0.00549185
0.00578014
0.00613353
0.00652606
0.00690522
0.00726587
0.00760014
0.00790384
0.00817156
0.00839395
0.00855964
0.00794384
0.00795472
0.00791608
0.00782339
0.00767814
0.00749124
0.00727066
0.00702136
0.00674532
0.00644794
0.00613974
0.00584696
0.00556644
0.00530105
0.00505687
0.00486463
0.00474993
0.00470895
0.00475997
0.00492582
0.0051922
0.00553261
0.0059183
0.00630086
0.00667337
0.00702225
0.00734244
0.00762681
0.00786408
0.00803754
0.00733309
0.00735813
0.00732356
0.00723197
0.00708514
0.00689772
0.00667627
0.00642601
0.00615034
0.0058569
0.00555751
0.00527169
0.00499996
0.00475404
0.00452888
0.00435071
0.00423451
0.00418455
0.00421755
0.00435596
0.00458965
0.00489678
0.00525897
0.00562671
0.00599349
0.00634418
0.00667081
0.00696337
0.00720838
0.00739412
0.00658743
0.00661979
0.00658334
0.00648994
0.00634155
0.00615863
0.00594631
0.00571013
0.00545385
0.0051856
0.00491676
0.00466031
0.00441857
0.0042086
0.00402159
0.00386765
0.0037541
0.00370672
0.00373482
0.00384267
0.00401763
0.00426859
0.00458463
0.00491274
0.00524928
0.00557599
0.00588924
0.006175
0.00642009
0.00661545
0.00570643
0.0057391
0.00570393
0.00561934
0.0054879
0.00533274
0.00515723
0.00496523
0.00475849
0.00454344
0.00432999
0.00412577
0.00393191
0.00376736
0.0036201
0.003487
0.00340924
0.00338124
0.00340219
0.00347798
0.00359938
0.00376043
0.00397111
0.00423449
0.0045146
0.00478442
0.00505021
0.0052977
0.0055179
0.00570483
0.00479731
0.00483263
0.0048167
0.00476561
0.00468172
0.00458421
0.00447311
0.00434884
0.00420986
0.00405944
0.00390813
0.00376063
0.0036131
0.00348401
0.00337377