/*--------------------------------*- C++ -*----------------------------------*\
| =========                 |                                                 |
| \\      /  F ield         | OpenFOAM: The Open Source CFD Toolbox           |
|  \\    /   O peration     | Version:  5.0                                   |
|   \\  /    A nd           | Web:      www.OpenFOAM.org                      |
|    \\/     M anipulation  |                                                 |
\*---------------------------------------------------------------------------*/
FoamFile
{
    version     2.0;
    format      ascii;
    class       volScalarField;
    location    "1400/air";
    object      alphat;
}
// * * * * * * * * * * * * * * * * * * * * * * * * * * * * * * * * * * * * * //

dimensions      [1 -1 -1 0 0 0 0];

internalField   nonuniform List<scalar> 
243000
(
0.000157965
0.000162373
0.000159969
0.000155533
0.000149764
0.000143297
0.000136539
0.000129786
0.000123242
0.000117068
0.000111311
0.000106011
0.000101142
9.67916e-05
9.30044e-05
8.99721e-05
8.7849e-05
8.6865e-05
8.69644e-05
8.7835e-05
8.88968e-05
8.95628e-05
8.93591e-05
8.80296e-05
8.75407e-05
8.51101e-05
8.19632e-05
0.000361724
0.00033324
0.000332892
0.000681435
0.000726611
0.000738812
0.000740124
0.000734501
0.000723973
0.000710079
0.000693969
0.000676421
0.000657962
0.000638841
0.000619387
0.000599807
0.000580949
0.000563438
0.000548584
0.000537322
0.000531053
0.000528978
0.000529101
0.000528217
0.000523564
0.000512923
0.000495332
0.000466873
0.000439544
0.000409225
0.00037694
0.000341123
0.000319731
0.000729269
0.000774799
0.000790583
0.000793772
0.000788973
0.000778817
0.000764909
0.00074849
0.000730394
0.000711246
0.000691361
0.000671232
0.00065117
0.000632206
0.00061508
0.000601269
0.000591689
0.000587468
0.000587236
0.000588559
0.000588286
0.000583788
0.000572964
0.000554808
0.000529563
0.000498797
0.000463468
0.000422621
0.000380611
0.000345336
0.000743124
0.000792171
0.000813462
0.000820449
0.000818652
0.000810872
0.000798734
0.000783564
0.0007663
0.000747685
0.000728151
0.000708362
0.000688741
0.000670504
0.00065451
0.000642401
0.000635013
0.000633071
0.000634521
0.000636664
0.000636497
0.00063169
0.00062045
0.000601867
0.000576227
0.000544349
0.000507259
0.000463634
0.000418129
0.000377296
0.000737481
0.000787588
0.000815431
0.000828734
0.000831592
0.000827346
0.000817977
0.00080497
0.00078937
0.000772057
0.000753602
0.000734817
0.000716266
0.000699334
0.000684989
0.000675014
0.000670094
0.000670449
0.000673414
0.000676141
0.000675846
0.000670551
0.000658827
0.000639931
0.00061407
0.000581877
0.000544297
0.000499975
0.000452391
0.00040882
0.000718972
0.000770733
0.000804983
0.00082426
0.000832342
0.0008324
0.000826374
0.00081618
0.00080278
0.000787289
0.000770405
0.000753087
0.000736051
0.000720831
0.000708498
0.000700954
0.000698658
0.000701235
0.000705565
0.000708736
0.00070823
0.000702399
0.000690187
0.000671061
0.00064521
0.000613165
0.000575754
0.000531774
0.000483181
0.000438091
0.000688836
0.000744508
0.00078488
0.000810249
0.000823899
0.000828709
0.000826765
0.000819549
0.000808537
0.000795324
0.000780381
0.000764871
0.000749666
0.000736461
0.000726403
0.000721503
0.000721886
0.000726588
0.000732158
0.000735704
0.000734976
0.000728635
0.000715968
0.000696672
0.000670974
0.000639338
0.000602475
0.000559355
0.000510854
0.000464799
0.000651076
0.000711377
0.000757611
0.000788906
0.000808246
0.000818029
0.00082028
0.000816633
0.000808716
0.000797765
0.000784791
0.000771386
0.000758251
0.000747281
0.000739699
0.000737598
0.000740629
0.000747363
0.000754071
0.000757966
0.000757049
0.000750269
0.000737208
0.000717798
0.000692327
0.000661239
0.000625136
0.000583208
0.000535573
0.00048898
0.000612479
0.000676681
0.000726883
0.000762489
0.000787105
0.000801797
0.000808312
0.000808456
0.000803717
0.0007955
0.00078504
0.000773662
0.000762693
0.000754094
0.000749133
0.000749908
0.000755547
0.000764203
0.000771973
0.000776216
0.000775176
0.000768049
0.000754683
0.000735217
0.000710022
0.000679548
0.000644361
0.000603633
0.000557058
0.000510578
0.000576209
0.000640405
0.000694903
0.000734866
0.000762987
0.000781507
0.000792092
0.000796008
0.000794642
0.000789349
0.000781435
0.000772383
0.000763688
0.000757545
0.000755278
0.00075894
0.00076714
0.000777609
0.000786379
0.000790989
0.000789911
0.000782555
0.000768988
0.00074953
0.000724651
0.000694852
0.000660606
0.000620907
0.000575468
0.000529811
0.000548993
0.000603234
0.000660867
0.000705719
0.000738035
0.000759843
0.000773123
0.000780407
0.000782329
0.000780034
0.000774772
0.000768176
0.0007618
0.000758134
0.000758591
0.000765093
0.000775773
0.000787973
0.000797697
0.000802703
0.000801692
0.000794238
0.000780589
0.000761216
0.0007367
0.000707633
0.000674093
0.000635352
0.00059103
0.000546539
0.000539977
0.000569465
0.000624955
0.0006743
0.000711443
0.00073722
0.000753682
0.000763333
0.000767736
0.000768253
0.000765639
0.000761506
0.000757486
0.000756303
0.000759439
0.000768695
0.000781724
0.0007956
0.000806244
0.000811695
0.000810861
0.000803447
0.000789846
0.000770657
0.000746607
0.000718086
0.000685217
0.000647337
0.000604504
0.000561199
0.000557007
0.000550475
0.000590424
0.00064066
0.000682581
0.000712987
0.000733256
0.000745792
0.000752418
0.000754802
0.000754592
0.000752831
0.000751137
0.000752377
0.000758117
0.000770005
0.000785233
0.000800694
0.000812299
0.000818239
0.000817697
0.000810464
0.000797039
0.000778194
0.000754551
0.000726555
0.000694265
0.000657133
0.000616108
0.000574016
0.000599285
0.000563559
0.000568421
0.000607728
0.000651621
0.000686689
0.000711377
0.000727393
0.00073668
0.000741052
0.000742292
0.000742604
0.000743099
0.000746639
0.000754867
0.000769232
0.000786482
0.00080341
0.000816045
0.000822564
0.00082243
0.000815509
0.000802451
0.000784006
0.000760795
0.000733296
0.000701511
0.000665032
0.000625965
0.000585145
0.000649918
0.000609141
0.000577114
0.000585943
0.000621515
0.000658727
0.000687788
0.000707799
0.000720231
0.000726965
0.000729933
0.000731395
0.000733719
0.000739358
0.000749901
0.000766554
0.000785744
0.000804072
0.000817594
0.000824863
0.000825243
0.00081882
0.000806266
0.000788272
0.000765543
0.000738523
0.000707208
0.000671838
0.000634443
0.000594798
0.00069877
0.000665898
0.000620202
0.000591675
0.000601365
0.000631949
0.000663037
0.000686909
0.000702859
0.000712339
0.000717333
0.000720119
0.000723459
0.000730818
0.000743416
0.000762124
0.000783043
0.000802752
0.000817394
0.000825349
0.000826326
0.000820573
0.000808596
0.000791159
0.000768962
0.000742426
0.000711579
0.000677848
0.000641839
0.000603204
0.000746467
0.000717978
0.000677771
0.000631087
0.000605195
0.000614006
0.00063971
0.000665332
0.00068458
0.000697052
0.000704354
0.000708741
0.000713036
0.000721351
0.000735611
0.000756093
0.000778557
0.000799523
0.000815213
0.000824084
0.000825806
0.000820713
0.000809519
0.000792794
0.000771208
0.000745197
0.000715316
0.000683106
0.000648307
0.00061053
0.000793174
0.000767418
0.000733664
0.000686576
0.000639147
0.00061591
0.000623824
0.000645205
0.000665964
0.000681176
0.000690936
0.000697153
0.000702647
0.000711307
0.000726724
0.000748628
0.000772427
0.000794563
0.000811336
0.000821229
0.000823828
0.00081957
0.000809155
0.00079327
0.000772437
0.000747027
0.000718665
0.000687755
0.000653983
0.000616906
0.000838924
0.000814598
0.000783701
0.00074181
0.000690324
0.000643543
0.0006236
0.000630975
0.000648642
0.000665187
0.000677165
0.000685319
0.00069219
0.000701483
0.000717119
0.000739947
0.000764822
0.000788025
0.000805898
0.000816908
0.000820551
0.000817299
0.000807818
0.000792825
0.00077283
0.000748662
0.00072167
0.000691888
0.000658972
0.00062244
0.00088358
0.000859846
0.000830495
0.000792981
0.000744562
0.000688907
0.000644365
0.000628526
0.000635694
0.000650244
0.000663407
0.000673313
0.000681636
0.000691769
0.00070741
0.000730358
0.000755948
0.000780075
0.000799037
0.000811246
0.000816092
0.000814
0.000805662
0.000791708
0.000772715
0.000750136
0.000724408
0.000695605
0.000663375
0.00062722
0.00092697
0.000903302
0.000874764
0.000840243
0.00079568
0.000739985
0.000681962
0.000642201
0.000631139
0.000638368
0.000650452
0.000661399
0.000671043
0.000682123
0.000697981
0.000720315
0.000746108
0.000770919
0.000790919
0.000804366
0.000810558
0.000809764
0.00080279
0.00079008
0.000772743
0.000751598
0.000726999
0.000699025
0.00066731
0.000631349
0.000968865
0.000944971
0.000916955
0.000884412
0.000842751
0.000789667
0.000727495
0.000670686
0.000638288
0.000632199
0.000639587
0.000650106
0.000660616
0.000672591
0.00068879
0.000710753
0.000736115
0.000760942
0.000781767
0.000796412
0.000804051
0.000804724
0.000799431
0.000788593
0.000772924
0.000753151
0.000729578
0.000702291
0.000670923
0.000634962
0.00100911
0.000985087
0.000959033
0.000926945
0.000886709
0.000835974
0.000774122
0.000708492
0.000657497
0.000634149
0.000632554
0.000640314
0.000650761
0.000663345
0.000679895
0.00070165
0.000726693
0.000751536
0.00077287
0.000788527
0.00079765
0.000800031
0.00079647
0.000787418
0.000773374
0.000754935
0.000732346
0.000705615
0.00067441
0.00063824
0.0010482
0.00102568
0.000999154
0.000967055
0.000927637
0.000878785
0.000818635
0.000750022
0.000686351
0.000645492
0.000631258
0.000633348
0.000642266
0.000654876
0.000671624
0.000693237
0.000718032
0.000742882
0.000764681
0.000781305
0.000791809
0.000795902
0.000794048
0.000786709
0.000774252
0.000757162
0.000735538
0.000709327
0.000678116
0.00064146
0.00108549
0.00106263
0.00103601
0.00100429
0.000965844
0.000918681
0.000860769
0.000792458
0.000722018
0.000666618
0.000637933
0.000631397
0.000636815
0.000648547
0.000665167
0.000686612
0.000711132
0.000735902
0.00075805
0.000775503
0.000787233
0.000792958
0.000792776
0.000786984
0.000776084
0.00076032
0.00073968
0.000713938
0.000682598
0.000645173
0.00111923
0.00109672
0.0010707
0.00103991
0.00100289
0.00095783
0.000902756
0.000836811
0.000764404
0.000699217
0.000656725
0.000639411
0.00063903
0.000648635
0.000664754
0.00068589
0.000709978
0.000734429
0.000756605
0.000774524
0.0007871
0.000793806
0.000794994
0.000790653
0.000781053
0.000766455
0.000746665
0.000721228
0.000689332
0.000650442
0.00115476
0.00113301
0.00110803
0.00107874
0.00104388
0.00100193
0.000951029
0.000889801
0.000820152
0.000751551
0.000699187
0.000671227
0.000663769
0.000669955
0.000684978
0.000705214
0.000727963
0.000750827
0.000771666
0.000788661
0.000800749
0.000807443
0.000808943
0.000805141
0.00079615
0.000782086
0.000762601
0.000736982
0.000704093
0.000662653
0.00120011
0.00117994
0.00115707
0.00113094
0.00110073
0.00106519
0.00102264
0.000971592
0.000912427
0.000850887
0.000799171
0.000767271
0.000755458
0.000758389
0.000771111
0.000788372
0.000806637
0.000824434
0.000840093
0.000852316
0.000860338
0.000863824
0.000862829
0.00085709
0.000846525
0.000831115
0.00081047
0.000783428
0.00074819
0.000702066
0.00128424
0.0012687
0.00125292
0.00123668
0.00121935
0.00119961
0.0011757
0.0011464
0.0011112
0.00107286
0.00103937
0.00101807
0.00100985
0.00101182
0.00102029
0.00103075
0.00103987
0.00104752
0.00105289
0.00105545
0.00105514
0.00105167
0.00104503
0.00103485
0.00102021
0.00100138
0.000978792
0.00095035
0.000914582
0.000868418
0.00155935
0.00155756
0.00156003
0.00156211
0.00156303
0.001562
0.00155817
0.00155135
0.00154014
0.001525
0.0015114
0.00150197
0.00149637
0.00149463
0.00149579
0.00149862
0.00150002
0.00150192
0.00150353
0.00150525
0.00150688
0.00150831
0.00150909
0.00150871
0.00150309
0.00149406
0.00148533
0.0014713
0.00145306
0.00142994
0.000191541
0.000200153
0.000198759
0.000193996
0.000187305
0.000179589
0.00017143
0.000163239
0.000155263
0.000147688
0.000140586
0.000134073
0.00012817
0.000123066
0.000118842
0.000115787
0.000114038
0.000113856
0.000115116
0.000117175
0.000118903
0.000119253
0.00011743
0.000112959
0.00010575
9.61006e-05
8.39155e-05
0.000352362
0.000353193
8.41396e-05
0.00070707
0.000802522
0.000780532
0.000730704
0.00067515
0.000621316
0.000573118
0.000531127
0.000494702
0.000463327
0.000435961
0.00041257
0.000392105
0.000375763
0.000362868
0.000354768
0.000350359
0.000351219
0.000354376
0.00035919
0.000364493
0.000368436
0.000365989
0.000353878
0.000333441
0.000304452
0.00027231
0.000284413
0.000378869
0.000358714
0.00109783
0.0012754
0.00129352
0.00125061
0.00118369
0.00111031
0.00103975
0.000975473
0.000917991
0.000867474
0.000822817
0.000784544
0.000751267
0.000725596
0.000706723
0.000696428
0.000691979
0.000693598
0.000693556
0.000691664
0.000689219
0.000685167
0.00067268
0.000646739
0.000605794
0.00055054
0.000487862
0.000430593
0.000437077
0.000469905
0.0013051
0.00154265
0.00162186
0.00161021
0.00155905
0.00149064
0.0014177
0.00134717
0.0012816
0.00122234
0.00116925
0.00112384
0.00108542
0.00105762
0.00103986
0.00103409
0.00103515
0.00103916
0.00103551
0.00102492
0.0010108
0.000994024
0.000967758
0.000925551
0.000864941
0.000786622
0.000696944
0.000599396
0.000537826
0.000527052
0.0013996
0.00165222
0.00178099
0.00182314
0.00180813
0.00175978
0.00169721
0.00163152
0.00156773
0.0015081
0.00145421
0.00140866
0.00137206
0.00134882
0.00133873
0.00134356
0.00135396
0.00136162
0.00135483
0.00133605
0.00131048
0.00128075
0.00124096
0.00118363
0.00110654
0.00101015
0.00090002
0.000775692
0.000669091
0.000609261
0.00142929
0.00169216
0.00185442
0.00193427
0.0019541
0.00193491
0.00189057
0.0018366
0.00178204
0.00172817
0.0016797
0.00163979
0.00161069
0.00159787
0.00160089
0.00162117
0.001643
0.00165469
0.00164503
0.00161919
0.00158334
0.00154162
0.00148967
0.00141967
0.00132981
0.00122017
0.00109539
0.000953649
0.000818835
0.000718735
0.00140504
0.00165808
0.00184643
0.00196246
0.0020191
0.00203131
0.00201316
0.00197926
0.00193384
0.00188941
0.00185204
0.00182243
0.00180551
0.00180798
0.00182878
0.00186837
0.00190243
0.00191778
0.00190556
0.00187389
0.00182907
0.00177684
0.00171375
0.00163412
0.00153499
0.00141603
0.00128117
0.00112857
0.000976192
0.000846074
0.00130197
0.0015527
0.00176793
0.001922
0.00201718
0.00206315
0.00207199
0.00205989
0.00203307
0.00200584
0.00197807
0.0019619
0.00196145
0.00198261
0.00202589
0.00208731
0.00213382
0.00215228
0.00213767
0.00210155
0.00204905
0.00198804
0.00191561
0.0018283
0.00172264
0.00159791
0.00145703
0.0012977
0.00113448
0.000982226
0.00115926
0.00138965
0.00162929
0.00182429
0.00195928
0.00204017
0.00207698
0.00208864
0.00208417
0.00207489
0.00206464
0.00206574
0.00208283
0.00212601
0.00219525
0.00227968
0.00233922
0.00236029
0.00234345
0.00230416
0.00224549
0.00217625
0.0020971
0.00200392
0.00189387
0.00176618
0.00162249
0.00146149
0.00129246
0.00112079
0.00102153
0.00120726
0.00144791
0.00167589
0.00185367
0.00196966
0.00203726
0.00207497
0.00209407
0.00210524
0.00211552
0.00213653
0.00217415
0.00224222
0.00233913
0.00244698
0.00252038
0.00254422
0.00252565
0.00248378
0.00242069
0.00234569
0.00226086
0.0021631
0.00205028
0.00192164
0.00177906
0.00161626
0.0014442
0.00125505
0.000911605
0.00103537
0.00125208
0.00149305
0.0017027
0.00185756
0.00196114
0.0020263
0.00207074
0.00210428
0.00213582
0.00217849
0.00223836
0.00233262
0.00245956
0.00259078
0.00267677
0.00270473
0.00268659
0.00264269
0.00257817
0.00250051
0.00241099
0.00230836
0.00219375
0.00206679
0.00192297
0.00176001
0.00158803
0.00138463
0.000846929
0.000898375
0.00106784
0.00129741
0.00152368
0.00170905
0.00184609
0.00194676
0.00201901
0.00207681
0.00213073
0.00219524
0.0022789
0.0024025
0.00255855
0.0027125
0.00281136
0.00284302
0.00282473
0.00278246
0.00271806
0.00263883
0.00254653
0.0024425
0.00232718
0.00219877
0.00205465
0.00189326
0.00172023
0.00150965
0.00084415
0.000819203
0.000919848
0.0011123
0.0013349
0.00153814
0.00170334
0.00183586
0.00194009
0.00202602
0.00210299
0.00219016
0.00229818
0.00245221
0.00263735
0.00281318
0.00292466
0.00296404
0.00294783
0.00290581
0.00284257
0.00276236
0.0026686
0.00256549
0.00244887
0.00231953
0.00217569
0.00201654
0.00184049
0.00162492
0.000901934
0.000816871
0.000836583
0.000962495
0.00115805
0.00136132
0.00154479
0.00170298
0.00183539
0.00194982
0.002055
0.00216527
0.00229832
0.0024836
0.00269719
0.00289391
0.00301739
0.00306575
0.00305483
0.00301434
0.00295311
0.00287198
0.00278036
0.00267749
0.00256077
0.00243059
0.00228757
0.00213246
0.00194994
0.00172838
0.00102514
0.000900892
0.000843322
0.000887208
0.00102029
0.0011997
0.00138491
0.00155859
0.00171288
0.00185245
0.00198486
0.00212273
0.00228125
0.00249783
0.00273889
0.00295559
0.00309453
0.00314879
0.00314644
0.00310919
0.00305083
0.00297236
0.00288235
0.00277924
0.002663
0.00253334
0.002393
0.00223782
0.00204827
0.00182002
0.0012161
0.00106708
0.000956258
0.000908636
0.000957058
0.00108069
0.00124222
0.00141526
0.00158237
0.00174153
0.001898
0.00206253
0.0022491
0.00249575
0.002763
0.00299889
0.00315169
0.0032225
0.00322522
0.00319143
0.00313889
0.00306377
0.00297418
0.0028718
0.00275679
0.00262978
0.00249339
0.00233215
0.00213528
0.00189992
0.00147681
0.00131207
0.00116559
0.00104899
0.000996546
0.00103312
0.00114166
0.00129027
0.00145578
0.00162579
0.00180081
0.00198834
0.00220413
0.0024785
0.00277027
0.00302445
0.00319192
0.00327506
0.00328923
0.00326179
0.00321446
0.00314419
0.00305646
0.00295633
0.00284389
0.00272342
0.00258634
0.00241726
0.0022119
0.00196872
0.00180311
0.00162911
0.0014576
0.00129188
0.00115573
0.00108804
0.00110849
0.00120548
0.00134779
0.00151545
0.00170059
0.0019059
0.00214821
0.00244743
0.00276139
0.00303284
0.0032154
0.0033126
0.00333975
0.00332093
0.00327907
0.00321423
0.00312991
0.00303417
0.00293057
0.0028145
0.00267119
0.00249395
0.00227924
0.00202748
0.00218279
0.002003
0.00181299
0.00161222
0.00141426
0.00125293
0.00116975
0.00118167
0.001276
0.00142252
0.00160549
0.00182187
0.00208493
0.00240429
0.00273694
0.00302406
0.00322177
0.00333452
0.00337647
0.00336918
0.00333549
0.0032756
0.003199
0.00311412
0.00301816
0.00290033
0.00274979
0.00256357
0.00233868
0.00207756
0.00259024
0.00240943
0.00220744
0.00198207
0.00174041
0.00150725
0.00132646
0.00123902
0.00125462
0.00136013
0.00152572
0.00174294
0.00201753
0.0023504
0.00269632
0.00299653
0.00320847
0.00333808
0.00339648
0.00340506
0.00338129
0.0033353
0.00327393
0.00320016
0.00310695
0.00298113
0.00282276
0.00262719
0.0023916
0.00212044
0.00300046
0.00282189
0.00261344
0.00237189
0.00210057
0.00181668
0.00155834
0.00137505
0.00130042
0.00133632
0.00147065
0.00167328
0.00194743
0.00228382
0.00263347
0.00294372
0.00316635
0.0033136
0.00339317
0.00341656
0.00340979
0.00337823
0.00332878
0.00326356
0.00317371
0.00304886
0.00288654
0.00268369
0.00243835
0.00215727
0.00338574
0.00321068
0.00300005
0.00274963
0.00246047
0.00214413
0.00183119
0.00156969
0.00140638
0.00136417
0.00143655
0.00161616
0.00187813
0.00219887
0.00253565
0.00284304
0.00308305
0.003245
0.00334165
0.00338399
0.00339524
0.0033833
0.00335014
0.00329658
0.00321379
0.00309417
0.0029301
0.00272649
0.0024764
0.00218784
0.00371115
0.00354055
0.00333219
0.00308
0.00278385
0.00245111
0.00210515
0.00178815
0.00155003
0.00142912
0.00143273
0.00156016
0.00178297
0.00207005
0.0023768
0.00266471
0.00290403
0.0030811
0.00319565
0.00326172
0.00329746
0.00331214
0.00330336
0.00327129
0.00320874
0.0031023
0.00295037
0.00274601
0.00249674
0.00220863
0.00393498
0.00377156
0.00357076
0.003325
0.00303248
0.00269736
0.0023372
0.00198709
0.00169382
0.00150212
0.00143319
0.00148257
0.00164446
0.00187436
0.00212613
0.00237903
0.00260888
0.00278784
0.00291828
0.00301196
0.0030775
0.00312616
0.00315018
0.00315003
0.00311968
0.00304618
0.0029166
0.00273485
0.00249385
0.00220833
0.00401324
0.00386351
0.00367828
0.00344841
0.00317028
0.00284587
0.00248885
0.0021279
0.00180338
0.00155778
0.0014181
0.00138561
0.00145851
0.00161449
0.00180777
0.0020192
0.0022209
0.00239067
0.00253017
0.00264257
0.00273509
0.00281326
0.0028693
0.00290352
0.00291078
0.00287982
0.00279556
0.00264658
0.00244146
0.00218525
0.00392463
0.00379916
0.00364022
0.00343743
0.00318609
0.00288833
0.00255711
0.00221643
0.00189869
0.00163839
0.00146129
0.00137358
0.00137444
0.00145923
0.00160146
0.00176495
0.00192014
0.00206143
0.00218409
0.00229097
0.0023851
0.002465
0.00252941
0.00257758
0.00260554
0.00260441
0.00256094
0.00246154
0.00229198
0.00207928
0.00370263
0.00361665
0.00349964
0.00334163
0.00313801
0.00289305
0.00262086
0.00234174
0.00207942
0.0018575
0.00169652
0.00159966
0.00157325
0.00161575
0.0017107
0.00182279
0.00192589
0.00202069
0.00210699
0.00218225
0.00224454
0.00229593
0.00233598
0.00236384
0.00237695
0.00236956
0.00233108
0.00224934
0.00210936
0.00190426
0.00349859
0.00346103
0.00339394
0.0032915
0.00315037
0.0029769
0.00278447
0.00258809
0.00240266
0.00224056
0.00211506
0.00203263
0.00200344
0.0020228
0.00207989
0.00214984
0.00221191
0.00227122
0.00232622
0.00237108
0.0024055
0.00243169
0.00244827
0.00245372
0.00244559
0.00242036
0.00236955
0.00228059
0.00213928
0.00192959
0.0033511
0.00333844
0.00332334
0.0032829
0.00321313
0.00311611
0.00299771
0.002873
0.00275006
0.00263629
0.00254176
0.00247591
0.00244412
0.00244457
0.00246997
0.00250799
0.00254285
0.00258139
0.00261858
0.0026519
0.00267949
0.00270443
0.00272306
0.00273423
0.00273518
0.00272364
0.00269294
0.00263149
0.00253177
0.00238025
0.00328267
0.00328847
0.00329352
0.0032785
0.00324459
0.00319558
0.00313333
0.0030608
0.00298446
0.00290981
0.00284593
0.0027972
0.00276504
0.00275144
0.00275411
0.00277103
0.0027902
0.00281533
0.00284395
0.00287505
0.00290762
0.00293735
0.00296598
0.00299163
0.00301174
0.0030271
0.00303284
0.00301941
0.00299049
0.00294056
0.000221617
0.000230063
0.000226739
0.000220818
0.000213083
0.000204283
0.000195044
0.000185809
0.000176837
0.000168345
0.000160405
0.000153152
0.000146581
0.000140932
0.000136294
0.00013305
0.000131427
0.000132172
0.000135476
0.000140062
0.000143699
0.000144805
0.000142389
0.000135913
0.000125221
0.000110202
9.13693e-05
0.000372156
0.000366765
8.85761e-05
0.000914813
0.00105668
0.00106604
0.00101391
0.000943687
0.000872955
0.000809201
0.000753276
0.00070437
0.000661696
0.000623485
0.000589803
0.00055848
0.000531979
0.000508508
0.000490848
0.00047787
0.00047698
0.000484994
0.000500858
0.000518773
0.000533097
0.000531595
0.000507175
0.000462199
0.000402831
0.000339804
0.000317983
0.000393617
0.000380858
0.00144509
0.00170254
0.00177771
0.0017516
0.00167911
0.00159032
0.00150154
0.00141861
0.00134263
0.00127411
0.0012115
0.00115576
0.0011041
0.0010611
0.00102458
0.000997456
0.000976713
0.000970118
0.000968683
0.000974888
0.000985471
0.000995107
0.00097822
0.000928922
0.000847865
0.000737232
0.000614028
0.000501516
0.000477836
0.000539768
0.00179876
0.00212046
0.00224222
0.00225372
0.00220605
0.00212753
0.00203961
0.00195143
0.00186675
0.00178796
0.00171515
0.00165067
0.0015926
0.00154643
0.0015101
0.00148526
0.0014648
0.0014518
0.00143661
0.00142699
0.00142214
0.00141812
0.00138796
0.00131734
0.00120488
0.00105578
0.000886875
0.000713737
0.000605764
0.000616621
0.00199676
0.00230849
0.0024852
0.00256228
0.00255931
0.00250447
0.00243148
0.00235136
0.00227023
0.00219239
0.00212036
0.00205797
0.00200436
0.00196612
0.00194073
0.00192663
0.00190996
0.00188853
0.00185772
0.00183058
0.00181078
0.00179335
0.00174911
0.00166266
0.00152976
0.00135482
0.00115427
0.000940155
0.000770437
0.00071794
0.00212008
0.00241927
0.00262188
0.00273398
0.00276831
0.00275191
0.00270348
0.00263977
0.00257061
0.00250182
0.00243911
0.00238728
0.00234745
0.00232668
0.00232034
0.0023224
0.00230977
0.00227711
0.0022295
0.00218583
0.00215176
0.00212032
0.00206526
0.00196874
0.00182419
0.00163434
0.00141375
0.00117252
0.000960184
0.000852124
0.00219386
0.00245751
0.00266403
0.00280312
0.00287575
0.00289535
0.00287849
0.00283709
0.00278396
0.00272986
0.0026843
0.00265016
0.00263201
0.0026367
0.00265601
0.00267785
0.00266674
0.00262056
0.00255623
0.00249736
0.00245016
0.00240573
0.00234221
0.00223996
0.00209044
0.00189436
0.0016637
0.00140777
0.00116593
0.00101169
0.00217633
0.00240118
0.00261386
0.00278248
0.00289375
0.0029515
0.0029678
0.00295594
0.00292724
0.00289676
0.00286687
0.00285638
0.00286624
0.00290298
0.00295428
0.0029973
0.00298436
0.0029232
0.00284333
0.00277173
0.00271191
0.00265633
0.00258604
0.00248102
0.00233118
0.00213551
0.00190494
0.00164023
0.00138062
0.00118505
0.00205062
0.00225334
0.00248006
0.00268445
0.00283591
0.00293379
0.00298596
0.00300572
0.00300609
0.00300046
0.00299762
0.00301428
0.00305706
0.00313166
0.00322051
0.0032837
0.00326595
0.00318973
0.00309646
0.00301472
0.00294374
0.00287848
0.00280414
0.0026975
0.00254978
0.00236086
0.00212989
0.00186256
0.00159353
0.0013657
0.00189474
0.00206374
0.00229351
0.00252261
0.00271298
0.00285333
0.00294346
0.00299761
0.00302925
0.00305302
0.00308191
0.00313253
0.00321045
0.00332948
0.00345717
0.00353879
0.00351465
0.00342485
0.0033213
0.00323136
0.00315091
0.00308033
0.0030005
0.00289421
0.00275118
0.00256607
0.00233788
0.00207363
0.0018011
0.00154851
0.00173666
0.00185337
0.00206993
0.002316
0.00254032
0.00271927
0.00284883
0.00293999
0.00300574
0.00306257
0.00312611
0.00321381
0.00333215
0.00350091
0.00366622
0.0037633
0.00373405
0.00363312
0.0035232
0.00342666
0.00334018
0.00326387
0.00317897
0.00307291
0.00293426
0.00275269
0.00253058
0.00227359
0.00200188
0.00173287
0.00160064
0.00164665
0.00182876
0.00207795
0.00232842
0.00254313
0.00271146
0.00284023
0.00294224
0.0030346
0.00313544
0.00326338
0.00342734
0.00364898
0.00384902
0.00395901
0.00392695
0.00381906
0.00370673
0.00360599
0.00351633
0.00343352
0.00334343
0.00323889
0.00310187
0.00292487
0.00271003
0.00246214
0.00219174
0.00191573
0.00150711
0.00147038
0.00159707
0.00182826
0.00209129
0.00233504
0.00253966
0.00270606
0.00284552
0.00297507
0.00311509
0.00328499
0.00349948
0.00376888
0.00400579
0.00412568
0.00409651
0.00398717
0.00387605
0.00377311
0.00368013
0.00359212
0.00349813
0.00339228
0.00325699
0.00308576
0.00287947
0.00263947
0.00236962
0.00208771
0.00149868
0.00136951
0.00141638
0.00159872
0.00185107
0.0021101
0.00234403
0.00254555
0.00272219
0.00289015
0.00307005
0.00328271
0.00355216
0.00387097
0.00413755
0.00426686
0.00424461
0.00413872
0.00402979
0.0039301
0.00383426
0.00374269
0.00364763
0.00353793
0.0034036
0.0032394
0.00304118
0.00280423
0.0025348
0.00224795
0.00157336
0.00138988
0.00133878
0.00143732
0.00164359
0.00189248
0.00214058
0.00236948
0.00258014
0.0027858
0.00300631
0.00326081
0.00358693
0.00395115
0.00424403
0.00438257
0.00436781
0.00427291
0.00417493
0.00407909
0.00398176
0.00388852
0.0037912
0.00367902
0.00354634
0.00338961
0.00319449
0.00295786
0.00268734
0.00239564
0.00175421
0.00153834
0.00140849
0.00139658
0.00152264
0.00171913
0.00195395
0.00219384
0.00242982
0.00266908
0.0029284
0.0032258
0.00360408
0.00400819
0.00431995
0.00447288
0.00447459
0.00439786
0.00430998
0.00421966
0.00412451
0.00403124
0.00393361
0.00382043
0.00369414
0.00353764
0.00333987
0.00310115
0.00282761
0.00253048
0.0020585
0.00182586
0.00164191
0.00153229
0.001523
0.00163794
0.00181905
0.00204156
0.00228554
0.00254866
0.0028406
0.00318379
0.00360189
0.00403946
0.00436987
0.00453646
0.00456176
0.00450689
0.00443291
0.00435076
0.00426042
0.00417171
0.00408076
0.00397529
0.00384464
0.00368117
0.00347813
0.00323476
0.00295612
0.00265251
0.00246727
0.00222961
0.00201224
0.00182879
0.00170777
0.00168496
0.00177203
0.00194125
0.00216516
0.002435
0.00275098
0.00313459
0.00358283
0.00404083
0.00438655
0.00457238
0.00462301
0.0045946
0.00453832
0.00446818
0.00438947
0.00431394
0.00423242
0.00412698
0.00398862
0.00381813
0.00360841
0.00335866
0.00307322
0.00276201
0.00294418
0.00270637
0.002468
0.00223441
0.00202608
0.00188084
0.0018373
0.00190909
0.00208671
0.00234
0.00266803
0.00307477
0.0035392
0.00400204
0.00436159
0.00456787
0.00464667
0.00464796
0.00461508
0.00456032
0.0044934
0.00442481
0.00434829
0.00425064
0.00411537
0.00394211
0.00372739
0.0034714
0.00317857
0.0028592
0.00344215
0.00320491
0.00295273
0.00268626
0.00241821
0.00217856
0.00201433
0.00196705
0.00205054
0.00227233
0.00258888
0.00299798
0.0034694
0.00393105
0.00427883
0.00450559
0.00461841
0.00465183
0.0046414
0.00460655
0.00455445
0.00449521
0.00442516
0.00433265
0.00420928
0.00404103
0.00382744
0.00356876
0.00327027
0.00294349
0.00391346
0.00367623
0.00341514
0.00312821
0.00282248
0.00251905
0.00226002
0.00209929
0.00207517
0.00220758
0.00248917
0.00287703
0.00331546
0.0037512
0.00411062
0.00435643
0.00450344
0.00456908
0.00458344
0.00457385
0.00454366
0.00450194
0.00444654
0.00436611
0.00425065
0.00409139
0.00389259
0.00364085
0.00334274
0.00301214
0.00431424
0.00407758
0.00381216
0.00351438
0.00318744
0.00284532
0.00252129
0.0022675
0.0021385
0.00216475
0.00237405
0.00270551
0.00310217
0.00349808
0.00383792
0.00409428
0.0042742
0.00436677
0.00441192
0.00443239
0.00443249
0.00441712
0.0043859
0.00432947
0.0042298
0.00408969
0.00389582
0.00366674
0.00338213
0.00305741
0.00460636
0.00437352
0.00410947
0.00380938
0.00347404
0.00311228
0.00274908
0.00242849
0.0022061
0.00212609
0.00221779
0.00246797
0.00280271
0.00314769
0.0034613
0.00372154
0.0039237
0.00404015
0.00411557
0.00416949
0.00420305
0.00421921
0.00421852
0.00419325
0.0041267
0.00400806
0.00384273
0.00361786
0.00335633
0.0030569
0.00476061
0.0045385
0.00428399
0.00399126
0.00365938
0.00329411
0.00291454
0.00255617
0.00226772
0.00209665
0.00206978
0.00220435
0.00246104
0.00276217
0.00304532
0.00330194
0.00350237
0.00363658
0.00373326
0.00381525
0.00387464
0.00391707
0.0039432
0.00394705
0.00391566
0.00383346
0.00369516
0.0035085
0.00327044
0.00299228
0.00476536
0.00456554
0.00433322
0.00406142
0.00374812
0.0033982
0.00302826
0.00266805
0.00235775
0.00213799
0.00203204
0.00206678
0.00223321
0.00248062
0.00273109
0.00296401
0.00313987
0.00327201
0.00337436
0.00346345
0.00352954
0.00357971
0.00361495
0.00363099
0.00361838
0.00356428
0.0034591
0.00329236
0.00308735
0.00285532
0.00464409
0.00448324
0.00429192
0.00406051
0.00378673
0.00347687
0.00314801
0.00282609
0.00254293
0.00232798
0.00219307
0.0021732
0.00226668
0.00244275
0.00264953
0.00283375
0.00297123
0.00307838
0.00316922
0.00324164
0.0032942
0.00333164
0.00335482
0.00336069
0.00334264
0.00329055
0.00319447
0.00304655
0.00284437
0.00261246
0.0044749
0.00436915
0.00424025