/*--------------------------------*- C++ -*----------------------------------*\
| =========                 |                                                 |
| \\      /  F ield         | OpenFOAM: The Open Source CFD Toolbox           |
|  \\    /   O peration     | Version:  5.0                                   |
|   \\  /    A nd           | Web:      www.OpenFOAM.org                      |
|    \\/     M anipulation  |                                                 |
\*---------------------------------------------------------------------------*/
FoamFile
{
    version     2.0;
    format      ascii;
    class       volScalarField;
    location    "1400/air";
    object      epsilon;
}
// * * * * * * * * * * * * * * * * * * * * * * * * * * * * * * * * * * * * * //

dimensions      [0 2 -3 0 0 0 0];

internalField   nonuniform List<scalar> 
243000
(
2.84071
3.59455
3.98879
4.23438
4.34104
4.33614
4.24232
4.08175
3.87407
3.63642
3.37862
3.11038
2.83561
2.56779
2.316
2.09689
1.92012
1.79681
1.71746
1.66003
1.59153
1.4854
1.33039
1.13523
1.01868
0.8718
0.744591
0.150355
0.11891
0.102884
1.44118
1.74852
1.83886
1.84929
1.80798
1.73178
1.63437
1.52599
1.41347
1.30118
1.19125
1.08593
0.986355
0.896409
0.817965
0.755202
0.709893
0.685541
0.677569
0.677834
0.674034
0.655899
0.616268
0.554816
0.480442
0.39876
0.319314
0.245754
0.181805
0.1499
1.76545
2.11926
2.25242
2.28071
2.24034
2.15556
2.04268
1.91444
1.77938
1.64348
1.50981
1.38206
1.26211
1.15534
1.06432
0.994644
0.948295
0.928502
0.927485
0.933518
0.931678
0.909816
0.859536
0.780021
0.679242
0.567539
0.455343
0.345233
0.252354
0.188675
1.86645
2.26339
2.45281
2.51776
2.50224
2.43237
2.32544
2.19605
2.05464
1.90901
1.76372
1.62422
1.49337
1.37832
1.28254
1.21329
1.17256
1.16235
1.17051
1.18214
1.18058
1.15324
1.09204
0.996293
0.874066
0.736813
0.59632
0.455564
0.334468
0.245938
1.82269
2.22298
2.46927
2.59379
2.62215
2.58307
2.49709
2.38055
2.24546
2.10151
1.95493
1.81287
1.67955
1.56385
1.47028
1.40784
1.37818
1.38105
1.39969
1.4165
1.41395
1.3801
1.30812
1.1981
1.05823
0.900198
0.736807
0.571267
0.423536
0.31279
1.68694
2.08167
2.37424
2.55092
2.62818
2.6299
2.57409
2.48081
2.36134
2.22794
2.08827
1.95122
1.82243
1.71249
1.627
1.57671
1.56242
1.58064
1.61043
1.63202
1.62779
1.58696
1.50469
1.38227
1.2281
1.05378
0.872349
0.687433
0.515995
0.384839
1.48189
1.87455
2.19921
2.42167
2.54786
2.59407
2.57697
2.51094
2.41187
2.29628
2.16999
2.04391
1.92523
1.82624
1.75359
1.71979
1.72394
1.75892
1.80012
1.82621
1.82005
1.77234
1.68051
1.54743
1.38184
1.19511
0.999913
0.800235
0.609772
0.459544
1.25048
1.63359
1.97621
2.23376
2.40401
2.49388
2.51574
2.48335
2.41276
2.31687
2.20642
2.09615
1.99184
1.90782
1.85178
1.83782
1.86227
1.91481
1.96739
1.99789
1.98989
1.93586
1.83546
1.69338
1.51878
1.32281
1.11752
0.907319
0.702742
0.53507
1.04041
1.40528
1.74451
2.01528
2.21877
2.34698
2.40602
2.40843
2.36738
2.29644
2.20793
2.11428
2.02673
1.96036
1.92368
1.93179
1.9777
2.04796
2.11174
2.14665
2.13728
2.0778
1.97011
1.82061
1.63908
1.43648
1.22436
1.00642
0.790969
0.609227
0.866565
1.19032
1.52319
1.80326
2.02017
2.17192
2.26279
2.2977
2.28704
2.2427
2.17693
2.10326
2.0343
1.98727
1.97157
2.0029
2.07088
2.15854
2.23318
2.27264
2.2626
2.19888
2.08535
1.93005
1.74341
1.53649
1.31998
1.09583
0.872326
0.680817
0.751286
0.994306
1.309
1.59601
1.82738
1.9955
2.10336
2.1641
2.18124
2.16326
2.12091
2.06846
2.01885
1.99178
1.99784
2.05256
2.14242
2.24703
2.33213
2.37631
2.36657
2.30004
2.18232
2.02282
1.83279
1.62375
1.40324
1.17468
0.945433
0.747581
0.718677
0.837331
1.10609
1.39096
1.63565
1.82154
1.94777
2.02448
2.06042
2.06571
2.04593
2.01436
1.98429
1.97726
2.00479
2.08231
2.19303
2.31404
2.40915
2.45838
2.45003
2.38228
2.26213
2.10018
1.90878
1.69769
1.47467
1.24308
1.01196
0.809602
0.794556
0.760419
0.933233
1.19198
1.4432
1.64654
1.79262
1.8873
1.93894
1.95821
1.95782
1.94561
1.93435
1.94646
1.99458
2.09364
2.2237
2.36004
2.46522
2.51975
2.51397
2.44665
2.32583
2.16357
1.97146
1.75947
1.53474
1.30111
1.07182
0.86664
0.99594
0.825129
0.837142
1.01803
1.25458
1.46969
1.63569
1.75008
1.81909
1.85266
1.86319
1.86677
1.87243
1.90209
1.96931
2.08807
2.23535
2.38554
2.501
2.56145
2.55941
2.49412
2.37486
2.21371
2.022
1.80996
1.58424
1.34937
1.12462
0.918373
1.26885
1.04935
0.886314
0.91696
1.08922
1.29649
1.47711
1.61138
1.69914
1.74843
1.7712
1.78295
1.80195
1.8468
1.93097
2.06709
2.23032
2.39269
2.51686
2.58464
2.58741
2.5261
2.41039
2.25143
2.06135
1.85008
1.62413
1.39163
1.17138
0.964924
1.57585
1.3677
1.10669
0.954098
0.991185
1.14548
1.32262
1.47189
1.57827
1.64437
1.68055
1.70147
1.72702
1.78337
1.88157
2.03224
2.2086
2.38258
2.51658
2.5908
2.59936
2.54406
2.43293
2.27772
2.09043
1.88075
1.65544
1.42994
1.2133
1.0068
1.91989
1.71231
1.44718
1.16721
1.02026
1.05498
1.18872
1.33701
1.45755
1.5401
1.59045
1.62177
1.65328
1.71482
1.82317
1.98512
2.17206
2.35546
2.49824
2.58072
2.59613
2.5473
2.44311
2.29345
2.1102
1.90312
1.68212
1.46402
1.25085
1.04434
2.30212
2.08863
1.82936
1.50328
1.21058
1.07361
1.10608
1.2201
1.34152
1.43669
1.50078
1.54318
1.58187
1.64414
1.75812
1.9276
2.12231
2.31341
2.46453
2.55584
2.57939
2.5383
2.44147
2.29934
2.12179
1.91845
1.70662
1.49474
1.28454
1.07786
2.72272
2.49585
2.22618
1.89265
1.528
1.23355
1.1122
1.14422
1.24019
1.33766
1.41242
1.46561
1.51212
1.57693
1.68949
1.86193
2.06131
2.25825
2.41705
2.51757
2.55056
2.51911
2.43109
2.29703
2.12651
1.93166
1.72881
1.52251
1.31476
1.10765
3.17991
2.9333
2.64632
2.30801
1.91499
1.51763
1.23532
1.13656
1.16965
1.24998
1.32792
1.38969
1.44386
1.51234
1.62191
1.79095
1.99134
2.19196
2.35751
2.46741
2.51108
2.49056
2.41339
2.28893
2.12655
1.94393
1.74934
1.5479
1.34194
1.13396
3.6707
3.39913
3.0899
2.74211
2.3331
1.88016
1.46985
1.21929
1.14873
1.18423
1.25192
1.31716
1.37752
1.45
1.55808
1.71829
1.91532
2.11689
2.28795
2.4069
2.46218
2.45371
2.38927
2.27632
2.12779
1.95618
1.769
1.57161
1.36668
1.15717
4.19037
3.89001
3.55658
3.1944
2.76798
2.28148
1.78553
1.39451
1.19344
1.15289
1.19114
1.25103
1.31436
1.39018
1.49754
1.65103
1.8397
2.03666
2.21076
2.33779
2.40508
2.40986
2.36052
2.26419
2.13012
1.96918
1.78873
1.59455
1.38977
1.17789
4.73381
4.4053
4.06599
3.67449
3.22022
2.70278
2.14946
1.64669
1.30948
1.16715
1.15388
1.19591
1.25664
1.33383
1.44052
1.58872
1.77034
1.96249
2.13676
2.26985
2.34899
2.36879
2.33548
2.25495
2.13468
1.98405
1.81002
1.61816
1.41239
1.19704
5.30515
4.971
4.5972
4.17065
3.68421
3.13607
2.53893
1.95368
1.49315
1.23477
1.1491
1.15831
1.20852
1.2837
1.3889
1.53261
1.70821
1.89597
2.07024
2.20892
2.29874
2.33328
2.31533
2.24975
2.14283
2.00252
1.83464
1.6447
1.4367
1.21614
5.89366
5.52939
5.12514
4.6702
4.15655
3.58005
2.94835
2.3029
1.73999
1.36349
1.18865
1.14911
1.17874
1.24727
1.34965
1.4895
1.65987
1.84353
2.01753
2.16094
2.26015
2.30856
2.30525
2.25316
2.15901
2.02856
1.86667
1.67784
1.46628
1.23835
6.45879
6.07757
5.65623
5.18373
4.65159
4.05507
3.39825
2.70931
2.06494
1.5761
1.29976
1.19542
1.19222
1.24854
1.34764
1.48525
1.65227
1.83302
2.00668
2.15361
2.25987
2.31691
2.32563
2.28573
2.20159
2.07886
1.92085
1.73061
1.51104
1.26995
7.09195
6.69947
6.26706
5.78456
5.24363
4.63887
3.97003
3.25429
2.54909
1.95854
1.57146
1.38556
1.33796
1.3769
1.47509
1.61453
1.78081
1.95812
2.12842
2.27332
2.3793
2.43835
2.45034
2.41392
2.332
2.20896
2.04682
1.84698
1.61086
1.34379
7.95878
7.56455
7.13394
6.66251
6.14424
5.57013
4.93124
4.23132
3.50543
2.84072
2.34825
2.0726
1.97534
1.99882
2.10432
2.25361
2.41894
2.5871
2.74053
2.86365
2.94565
2.98091
2.96921
2.9085
2.80041
2.64868
2.45515
2.2173
1.93209
1.59802
9.744
9.39394
9.04781
8.70105
8.34075
7.94297
7.47851
6.93393
6.31465
5.68039
5.15833
4.84048
4.71939
4.74592
4.86822
5.02372
5.16319
5.28269
5.36804
5.40998
5.40653
5.35352
5.25183
5.09838
4.88379
4.61706
4.31081
3.94587
3.51809
3.01449
17.384
17.3238
17.4067
17.4761
17.5062
17.4704
17.3414
17.1138
16.7451
16.2525
15.8149
15.5134
15.3354
15.2794
15.3132
15.401
15.4465
15.5074
15.5591
15.6143
15.6656
15.71
15.7334
15.7201
15.5463
15.2668
15.0005
14.5795
14.0449
13.3891
5.06534
6.73302
7.65186
8.21806
8.49415
8.53797
8.39924
8.12482
7.74954
7.30467
6.81054
6.29586
5.7748
5.28275
4.83755
4.47513
4.20625
4.05135
3.98707
3.94259
3.80799
3.50464
3.0162
2.39446
1.73994
1.14427
0.740801
0.142458
0.126438
0.475243
3.24949
3.85441
4.2688
4.52044
4.63079
4.62387
4.52003
4.34415
4.11863
3.86204
3.58975
3.31544
3.05079
2.80941
2.60505
2.45282
2.36148
2.33975
2.38185
2.44102
2.4411
2.3265
2.08486
1.74291
1.34986
0.963272
0.632415
0.351442
0.256483
0.219954
2.82976
3.2761
3.57783
3.76114
3.84478
3.84477
3.77113
3.63918
3.4647
3.26264
3.04635
2.82823
2.61875
2.43116
2.27738
2.17311
2.124
2.13533
2.20018
2.27912
2.3071
2.23534
2.04804
1.76233
1.42277
1.0711
0.748328
0.468208
0.316223
0.258757
2.52755
2.91091
3.18814
3.3638
3.45629
3.47861
3.43655
3.34059
3.20354
3.03834
2.8572
2.67234
2.49362
2.33572
2.21086
2.13483
2.11162
2.14337
2.21799
2.29937
2.33287
2.27532
2.11115
1.85352
1.53877
1.20167
0.87938
0.58589
0.389536
0.281872
2.22878
2.56076
2.83899
3.03151
3.14893
3.20032
3.19136
3.12917
3.02543
2.89226
2.74128
2.58468
2.4322
2.30012
2.2005
2.14981
2.1503
2.2
2.28195
2.36155
2.3921
2.33742
2.18436
1.94468
1.64735
1.32238
1.00348
0.703241
0.477055
0.330444
1.89731
2.19932
2.48835
2.70674
2.85497
2.93814
2.96134
2.93159
2.85914
2.75602
2.63374
2.50439
2.37788
2.27122
2.19705
2.1723
2.19652
2.26392
2.35251
2.42876
2.45334
2.39664
2.24895
2.02184
1.73886
1.42615
1.11395
0.813437
0.569462
0.395426
1.53985
1.82598
2.13451
2.37999
2.56013
2.67472
2.72774
2.72854
2.68561
2.61154
2.5175
2.41524
2.31521
2.23446
2.18662
2.18869
2.23719
2.32221
2.41692
2.48933
2.50698
2.44599
2.30144
2.08292
1.81235
1.51264
1.20987
0.913846
0.661059
0.468863
1.18321
1.45672
1.78414
2.05652
2.26561
2.40844
2.4873
2.5148
2.50048
2.45523
2.38898
2.31367
2.24029
2.18629
2.16542
2.19485
2.26765
2.36979
2.47023
2.53873
2.54948
2.48337
2.34012
2.12863
1.86932
1.58275
1.29115
1.00352
0.748781
0.545476
0.935409
1.17011
1.47812
1.75525
1.98199
2.14482
2.23902
2.28929
2.30268
2.28739
2.24904
2.20054
2.15363
2.12668
2.13303
2.18983
2.28626
2.40431
2.51021
2.57504
2.57938
2.50957
2.36604
2.16062
1.91193
1.6385
1.35903
1.08183
0.830892
0.621792
0.772097
0.956632
1.23476
1.51058
1.73524
1.89445
1.99635
2.06338
2.09901
2.10923
2.09986
2.07821
2.05732
2.05723
2.09005
2.17385
2.29251
2.42464
2.53535
2.59756
2.59622
2.52266
2.37982
2.18058
1.94241
1.68208
1.41515
1.14929
0.905439
0.69623
0.668965
0.796596
1.03752
1.30482
1.5295
1.6855
1.78131
1.853
1.90374
1.93313
1.9455
1.95
1.95421
1.97921
2.03803
2.14764
2.28779
2.43179
2.54531
2.60596
2.59885
2.52145
2.38082
2.18986
1.96283
1.71555
1.46106
1.20687
0.972358
0.766067
0.630923
0.683704
0.876053
1.12265
1.34775
1.50834
1.60354
1.6749
1.7276
1.76851
1.79741
1.82014
1.84675
1.8949
1.97849
2.11199
2.27041
2.42645
2.54345
2.60091
2.58971
2.51074
2.37322
2.18967
1.97506
1.74059
1.49822
1.25581
1.03182
0.830652
0.665223
0.633244
0.753021
0.962362
1.17995
1.34805
1.45236
1.52666
1.57977
1.62126
1.65859
1.69435
1.73819
1.80658
1.9129
2.06777
2.24162
2.40571
2.52495
2.58223
2.56902
2.49126
2.35865
2.18377
1.9809
1.75871
1.52814
1.2979
1.0846
0.889766
0.777728
0.681975
0.693217
0.831614
1.02855
1.1977
1.31671
1.39922
1.45443
1.49588
1.53313
1.57497
1.63131
1.71649
1.84267
2.01584
2.2021
2.37222
2.49339
2.55095
2.53777
2.46445
2.33831
2.17318
1.98116
1.77117
1.55238
1.33567
1.13196
0.943701
0.950776
0.830558
0.75061
0.778016
0.909506
1.06366
1.1914
1.28457
1.34414
1.38657
1.42418
1.46602
1.52891
1.62676
1.76922
1.95714
2.15293
2.32722
2.44997
2.50865
2.49739
2.43037
2.31313
2.15879
1.97786
1.77951
1.5735
1.36951
1.17459
0.99272
1.1806
1.05545
0.929148
0.843251
0.865373
0.968109
1.08094
1.17797
1.24435
1.29
1.32893
1.37116
1.43397
1.53963
1.69402
1.89288
2.09528
2.27223
2.39647
2.45743
2.45062
2.39094
2.28435
2.14168
1.9723
1.78567
1.5931
1.40033
1.21315
1.03716
1.46987
1.34008
1.20079
1.04443
0.939764
0.937417
1.00453
1.08544
1.15447
1.204
1.24524
1.28846
1.35067
1.45739
1.61888
1.82475
2.03116
2.20961
2.33541
2.39998
2.39916
2.34826
2.25385
2.12357
1.96631
1.79308
1.61215
1.42898
1.24831
1.07739
1.81901
1.68114
1.53341
1.34619
1.14893
1.01745
0.987956
1.02331
1.07935
1.1289
1.17203
1.21664
1.27901
1.38273
1.54643
1.75549
1.96375
2.14298
2.27048
2.33977
2.3466
2.30578
2.22474
2.10732
1.96343
1.80243
1.63163
1.45632
1.28078
1.11387
2.22806
2.07655
1.91457
1.70991
1.46211
1.22198
1.06751
1.01736
1.03195
1.06904
1.11019
1.15551
1.21872
1.32133
1.4813
1.68987
1.89843
2.07824
2.20771
2.28257
2.29911
2.26978
2.20279
2.09839
1.9657
1.81576
1.65307
1.48357
1.31149
1.14732
2.69046
2.52442
2.34465
2.1215
1.84271
1.52997
1.25668
1.09124
1.03081
1.03397
1.06378
1.10681
1.17147
1.27498
1.43254
1.63698
1.84533
2.02627
2.15858
2.23895
2.26854
2.25293
2.19563
2.10168
1.98051
1.83803
1.67984
1.51304
1.34201
1.17888
3.21282
3.03292
2.83273
2.58569
2.27759
1.91397
1.54712
1.26093
1.09883
1.03999
1.04203
1.07672
1.14265
1.2497
1.41092
1.61585
1.82597
2.01021
2.14966
2.23785
2.27504
2.27026
2.22296
2.13878
2.02334
1.88078
1.71933
1.54946
1.37522
1.21011
3.81498
3.62204
3.39932
3.12253
2.77971
2.37073
1.93055
1.53545
1.25798
1.11162
1.06466
1.07907
1.14377
1.26115
1.43584
1.6532
1.87415
2.0661
2.21098
2.3045
2.34778
2.34879
2.30594
2.22456
2.10772
1.95911
1.78741
1.60364
1.41765
1.24442
4.53674
4.33213
4.08685
3.77646
3.39379
2.9382
2.43367
1.94266
1.54643
1.29274
1.17438
1.15447
1.21553
1.35162
1.5569
1.80622
2.05204
2.25794
2.4117
2.50847
2.55162
2.54785
2.49584
2.40091
2.26718
2.09961
1.90509
1.69671
1.48506
1.29088
5.4658
5.2506
4.98429
4.64393
4.22466
3.72587
3.1632
2.58585
2.07185
1.69516
1.48281
1.41396
1.47083
1.64287
1.91319
2.22919
2.52157
2.75739
2.921
3.01127
3.03564
2.99902
2.90519
2.764
2.58273
2.36757
2.12534
1.86805
1.60862
1.37376
6.7714
6.55821
6.28599
5.93653
5.50818
4.99769
4.4081
3.77224
3.15779
2.65742
2.34125
2.21993
2.28768
2.53911
2.94336
3.38664
3.75949
4.03362
4.19062
4.23292
4.17461
4.03205
3.82154
3.55988
3.26041
2.93279
2.58401
2.22536
1.86715
1.54357
8.89671
8.71631
8.48662
8.19527
7.84516
7.42737
6.92517
6.34795
5.74087
5.20939
4.87105
4.77924
4.95533
5.40631
6.0737
6.72813
7.19407
7.45752
7.50493
7.34591
7.02104
6.57666
6.05334
5.48141
4.88591
4.28346
3.68058
3.08505
2.50234
1.97226
12.9748
12.9119
12.851
12.7924
12.7508
12.7069
12.6014
12.4201
12.1696
11.9671
11.9684
12.267
12.8783
13.807
14.9053
15.8034
16.2787
16.3445
15.9806
15.2449
14.2332
13.0519
11.782
10.4743
9.1723
7.90791
6.68815
5.50603
4.36015
3.30189
21.8016
21.9549
22.2662
22.7211
23.3826
24.1888
24.9708
25.6965
26.3055
26.9559
27.8456
29.0393
30.4743
32.1045
33.6067
34.6043
34.9474
34.6145
33.5589
31.9184
29.86
27.5468
25.1065
22.5998
20.0727
17.5848
15.1512
12.7266
10.3159
8.00696
36.5684
36.9277
37.9362
39.3357
41.1383
43.027
44.6802
46.0756
47.1492
48.3222
49.7707
51.4837
53.1996
54.8429
55.9396
56.3989
56.3391
55.6673
54.3341
52.4648
50.2203
47.7172
45.0847
42.34
39.4368
36.3706
33.1497
29.6841
26.0328
22.305
42.7872
43.1671
44.7915
46.749
48.4328
49.6018
50.3583
50.8536
51.2698
51.8257
52.6887
53.7386
54.6068
55.1998
55.0483
54.4302
53.8896
53.1501
52.2598
51.2406
50.171
49.1652
48.2391
47.4137
46.5885
45.6059
44.4763
43.1932
41.6994
39.9941
7.84775
10.2269
11.3617
12.1218
12.508
12.5687
12.3725
11.9846
11.4523
10.8214
10.1192
9.38778
8.64209
7.93858
7.30236
6.7955
6.44327
6.34018
6.49748
6.72915
6.71636
6.26922
5.37172
4.16482
2.87635
1.71743
0.851737
0.145152
0.12943
0.508962
4.71791
5.41558
5.81059
6.08724
6.21581
6.20469
6.07407
5.8541
5.57087
5.24672
4.90116
4.54952
4.20829
3.89165
3.62422
3.42619
3.32608
3.37495
3.6031
3.89175
4.03789
3.91777
3.5239
2.9306
2.22954
1.51358
0.889226
0.429666
0.281423
0.238858
4.25021
4.71766
5.01242
5.1909
5.25762
5.22759
5.11192
4.92774
4.69267
4.42361
4.13675
3.84581
3.56579
3.31136
3.10254
2.95978
2.9024
2.97327
3.19452
3.47234
3.6428
3.59666
3.33038
2.86968
2.28713
1.66417
1.08375
0.606255
0.367164
0.276445
3.95152
4.32999
4.6077
4.78247
4.85701
4.84655
4.75777
4.60546
4.40423
4.16893
3.91449
3.65454
3.40391
3.18014
3.00242
2.89062
2.86006
2.94629
3.15626
3.40737
3.56779
3.54414
3.31893
2.92175
2.40693
1.83245
1.27196
0.77493
0.460609
0.306866
3.64613
3.94268
4.22055
4.42224
4.53208
4.55793
4.50587
4.38869
4.22142
4.01844
3.79423
3.56246
3.33942
3.14422
2.99594
2.91504
2.91402
3.0188
3.22088
3.44461
3.57926
3.55096
3.34639
2.98605
2.51473
1.97884
1.43924
0.936633
0.572862
0.364249
3.28922
3.51147
3.79529
4.03128
4.1869
4.25704
4.24812
4.17014
4.03967
3.87147
3.68002
3.47942
3.2867
3.1229
3.00777
2.96227
2.99451
3.12099
3.31778
3.51362
3.61905
3.57711
3.37714
3.03857
2.59922
2.09701
1.58148
1.08575
0.694093
0.441918
2.89414
3.0528
3.33476
3.60221
3.80425
3.92123
3.95658
3.92136
3.83065
3.70024
3.54509
3.37936
3.22109
3.09322
3.01595
3.0108
3.08005
3.22978
3.42218
3.59102
3.66612
3.60486
3.40128
3.07587
2.66132
2.18912
1.69906
1.21833
0.816029
0.532239
2.45405
2.57288
2.85232
3.14668
3.39023
3.5517
3.62986
3.63802
3.58914
3.49902
3.38297
3.25545
3.13627
3.0489
3.01387
3.05333
3.16228
3.33523
3.52279
3.66537
3.71024
3.62688
3.41559
3.09826
2.70394
2.25876
1.79444
1.33309
0.932646
0.629241
1.97427
2.07707
2.36193
2.6846
2.96155
3.16062
3.2779
3.32564
3.31879
3.27002
3.19503
3.10843
3.03186
2.98943
3.00045
3.08774
3.23736
3.43166
3.6132
3.73011
3.74523
3.63969
3.41746
3.10634
2.73009
2.30957
1.87027
1.43078
1.03948
0.725835
1.58012
1.65546
1.92624
2.2495
2.54167
2.76687
2.91498
2.99709
3.02777
3.01964
2.98612
2.94223
2.911
2.91654
2.9763
3.11359
3.303
3.51526
3.68898
3.78119
3.76831
3.63886
3.40906
3.10229
2.74276
2.34486
1.92945
1.51291
1.13505
0.817767
1.27232
1.30946
1.54914
1.86163
2.15807
2.39428
2.55982
2.66721
2.72892
2.75663
2.76301
2.76237
2.77791
2.83201
2.9432
3.13089
3.35739
3.58311
3.74687
3.8155
3.77573
3.62751
3.39214
3.09083
2.74464
2.36771
1.97503
1.58138
1.21872
0.903098
1.05397
1.04036
1.23299
1.52107
1.81215
2.05347
2.23042
2.3534
2.43578
2.49247
2.53409
2.57442
2.63586
2.7393
2.9029
3.13947
3.39872
3.6327
3.78447
3.8307
3.76662
3.60564
3.36783
3.07336
2.73981
2.38157
2.01036
1.64
1.29137
0.980887
0.923651
0.853635
0.982698
1.22962
1.50425
1.74492
1.92978
2.06444
2.16268
2.23846
2.30781
2.3845
2.48905
2.64183
2.85707
3.14052
3.42528
3.66193
3.80035
3.82665
3.74459
3.57464
3.33757
3.05144
2.73103
2.38972
2.0399
1.69022
1.35401
1.05029
0.89331
0.770297
0.81625
0.997351
1.23901
1.47016
1.65896
1.80285
1.91327
2.00431
2.09275
2.19858
2.34159
2.54288
2.80712
3.13228
3.43655
3.67237
3.79907
3.80549
3.71111
3.53655
3.30337
3.02718
2.72069
2.39645
2.06673
1.73197
1.40728
1.11111
0.94235
0.79958
0.764084
0.852801
1.0324
1.23705
1.4211
1.57023
1.68985
1.79281
1.89691
2.02241
2.19806
2.44481
2.75433
3.11575
3.4367
3.66795
3.77819
3.77009
3.66834
3.4944
3.26822
3.00364
2.71233
2.4062
2.0904
1.76715
1.45222
1.16367
1.07185
0.926335
0.840056
0.826997
0.917573
1.06468
1.22536
1.37042
1.49462
1.60611
1.72244
1.86352
2.06329
2.3504
2.70036
3.09208
3.42203
3.64559
3.74443
3.7266
3.62199
3.45327
3.23692
2.9857
2.71034
2.41832
2.11135
1.79697
1.48993
1.20861
1.29776
1.14788
1.03475
0.94971
0.923825
0.9843
1.09042
1.2126
1.33183
1.44662
1.57151
1.72495
1.94244
2.26356
2.64832
3.06482
3.39967
3.61656
3.70644
3.6844
3.58203
3.42143
3.21723
2.98028
2.71768
2.43265
2.13125
1.82282
1.52165
1.24676
1.62447
1.46318
1.32931
1.19815
1.08271
1.02543
1.04292
1.11325
1.20993
1.31871
1.44707
1.61062
1.84646
2.19053
2.60448
3.04172
3.38169
3.59364
3.6786
3.6585
3.56106
3.41096
3.2196
2.99446
2.7362
2.45285
2.15251
1.84653
1.54887
1.2792
2.05621
1.87316
1.71274
1.54497
1.3654
1.20397
1.10807
1.09287
1.14306
1.23035
1.3546
1.52725
1.782
2.14302
2.58206
3.04137
3.3892
3.60077
3.68576
3.67585
3.59608
3.46035
3.27512
3.04348
2.77636
2.48534
2.17937
1.87094
1.57361
1.30737
2.59892
2.38353
2.1868
1.97907
1.74768
1.50485
1.29833
1.17603
1.14681
1.19555
1.30678
1.48635
1.75893
2.14146
2.60884
3.09292
3.45598
3.67475
3.77536
3.78436
3.71357
3.57925
3.38923
3.14587
2.8574
2.54273
2.2198
1.90116
1.59918
1.33344
3.2687
3.01154
2.76856
2.5125
2.22893
1.91866
1.61713
1.38347
1.25773
1.24002
1.32406
1.50863
1.81205
2.23652
2.74814
3.26547
3.6589
3.89852
4.01449
4.03141
3.95729
3.80821
3.59514
3.32455
3.00364
2.65045
2.29033
1.94757
1.63191
1.36101
4.09947
3.7938
3.49699
3.18515
2.84512
2.47237
2.09042
1.75407
1.52249
1.42411
1.46481
1.65492
2.00355
2.49871
3.09219
3.67674
4.11264
4.38059
4.50771
4.51977
4.4195
4.22775
3.96132
3.63318
3.25535
2.84452
2.42823
2.03457
1.68679
1.39866
5.15954
4.80312
4.45156
4.08396
3.68951
3.26099
2.81291
2.39016
2.05746
1.87237
1.86118
2.06387
2.48501
3.10515
3.84538
4.54771
5.04554
5.3478
5.47487
5.45182
5.28198
4.99616
4.62215
4.18322
3.69955
3.1926
2.68646
2.21677
1.80307
1.47011
6.59092
6.19153
5.79864
5.39382
4.96713
4.50896
4.02598
3.55235
3.14979
2.8976
2.8533
3.10023
3.65496
4.48398
5.4814
6.36801
6.95423
7.28241
7.37446
7.24637
6.91932
6.44032
5.85691
5.20934
4.53008
3.84735
3.18709
2.57927
2.05038
1.62937
8.70134
8.2927
7.90315
7.517
7.12366
6.7108
6.27826
5.85042
5.48181
5.26213
5.28314
5.68234
6.49126
7.66287
9.06121
10.1971
10.8759
11.1818
11.1409
10.7622
10.106
9.24781
8.26706
7.23094
6.18913
5.18006
4.22954
3.36374
2.60835
1.99684
12.198
11.862
11.5697
11.3212
11.1046
10.9055
10.7193
10.5613
10.4701
10.5348
10.8888
11.6878
12.9636
14.6421
16.5393
17.9191
18.6254
18.7872
18.41
17.5409
16.2867
14.7652
13.0987
11.3856
9.69949
8.09557
6.59742
5.22352
3.9973
2.97828
18.6125
18.502
18.425
18.5082
18.708
19.0062
19.3781
19.823
20.3527
21.0569
22.0946
23.6014
25.565
27.8389
30.1298
31.5567
32.1185
31.9352
31.0052
29.4372
27.3871
25.0111
22.4425
19.7952
17.1581
14.6168
12.1996
9.90027
7.74864
5.85524
30.002
30.2234
30.7332
31.3892
32.238
33.2554
34.3591
35.5255
36.7481
38.1533
39.932
42.1241
44.6267
47.1405
49.2025
50.0043
50.0498
49.3131
47.8797
45.8459
43.3906
40.6466
37.688
34.5484
31.2341
27.8329
24.4204
20.9477
17.4562
14.1242
44.3561
44.6077
45.7801
47.3848
49.1228
50.7693
52.2144
53.5159
54.7784
56.2198
58.0129
60.0485
62.0016
63.4543
63.8884
62.7784
61.6716
60.2357
58.6735
56.9299
55.1937
53.5273
51.9252
50.2707
48.3779
45.9972
43.104
39.7753
36.0398
32.0323
47.2701
48.0827
49.8546
51.9036
53.7027
55.0015
55.8488
56.4345
56.9762
57.7035
58.7048
59.8093
60.6319
60.8242
59.7847
57.4999
55.7572
54.0557
52.6494
51.459
50.6068
50.1067
49.9171
49.9203
49.9239
49.726
49.2435
48.4595
47.3458
45.9245
10.9744
14.0388
15.3316
16.1124
16.5236
16.5612
16.2881
15.7785
15.0875
14.2705
13.3553
12.3955
11.4016
10.4542
9.58634
8.90591
8.50046
8.69964
9.60986
10.6763
11.0801
10.4927
8.99853
6.93702
4.71141
2.69462
1.21308
0.147632
0.130384
0.521878
6.39191
7.19346
7.57239
7.79961
7.9064
7.86975
7.69746
7.41992
7.06637
6.6602
6.2239
5.77268
5.33133
4.91299
4.55783
4.29008
4.18764
4.42235
5.09179
5.8661
6.27971
6.14596
5.53592
4.60709
3.51349
2.34916
1.30783
0.536496
0.25532
0.241106
5.84837
6.30129
6.55992
6.70597
6.74622
6.68364
6.52463
6.28559
5.98467
5.63848
5.26542
4.87905
4.50306
4.15483
3.86656
3.66233
3.59844
3.82187
4.39647
5.06604
5.47003
5.44251
5.0394
4.37134
3.48795
2.50867
1.57038
0.775093
0.381272
0.260687
5.56208
5.86972
6.11753
6.27816
6.33687
6.30006
6.17073
5.96388
5.69554
5.38051
5.03598
4.67566
4.32548
4.0071
3.75158
3.58236
3.55084
3.78804
4.31165
4.88919
5.25387
5.24973
4.92992
4.34541
3.57546
2.69412
1.8103
1.00375
0.506284
0.30093
5.24702
5.4557
5.71483
5.91993
6.02805
6.03927
5.95272
5.78316
5.54815
5.26317
4.94554
4.61086
4.28505
3.99549
3.77101
3.64007
3.65344
3.91971
4.41172
4.92163
5.21584
5.20217
4.89816
4.3606
3.6611
2.85005
2.01356
1.21747
0.64922
0.367991
4.84839
4.98623
5.25485
5.51183
5.68427
5.75259
5.71958
5.59533
5.40007
5.15137
4.86684
4.56214
4.26855
4.00993
3.82466
3.74219
3.81208
4.11839
4.58706
5.02443
5.25078
5.19568
4.88872
4.37792
3.72461
2.97037
2.17997
1.40734
0.803564
0.458408
4.3879
4.46672
4.73626
5.03804
5.27303
5.40183
5.42788
5.3559
5.20733
5.00197
4.75944
4.49088
4.23474
4.01921
3.88313
3.86072
3.99808
4.34851
4.79535
5.16303
5.31861
5.21382
4.88626
4.38633
3.76545
3.05826
2.31232
1.57078
0.957195
0.563887
3.87908
3.89438
4.16719
4.50489
4.79465
4.98313
5.06848
5.05374
4.95812
4.80297
4.60997
4.38703
4.17733
4.01544
3.93783
3.98668
4.20005
4.59292
5.01498
5.31327
5.39625
5.23887
4.8832
4.38323
3.78685
3.11876
2.41471
1.70879
1.102
0.677098
3.32879
3.29146
3.565
3.92986
4.26338
4.50636
4.65
4.69171
4.65367
4.55453
4.41718
4.24782
4.09554
3.99519
3.98745
4.11809
4.41174
4.84052
5.23127
5.45948
5.46894
5.25974
4.87513
4.37233
3.79223
3.15732
2.49225
1.82415
1.23416
0.790334
2.75693
2.7019
2.96371
3.33837
3.70172
3.99194
4.1879
4.28333
4.30278
4.26318
4.18501
4.07648
3.99262
3.96357
4.0344
4.25505
4.62827
5.08178
5.43265
5.59104
5.52794
5.26916
4.86002
4.35463
3.78707
3.18021
2.55089
1.92042
1.35096
0.898368
2.27159
2.18133
2.41408
2.77891
3.15368
3.46876
3.70305
3.84763
3.91978
3.93903
3.92176
3.88091
3.87453
3.92443
4.08176
4.39791
4.84432
5.30752
5.6097
5.69857
5.57157
5.26439
4.83785
4.3322
3.77724
3.19385
2.59909
2.00327
1.45182
0.998347
1.87583
1.74063
1.92963
2.26768
2.63751
2.96474
3.22424
3.40616
3.52313
3.59588
3.63839
3.67067
3.74592
3.88325
4.13294
4.54622
5.05351
5.50906
5.75548
5.77564
5.59158
5.24922
4.81089
4.30814
3.76669
3.20781
2.64114
2.07041
1.53673
1.08828
1.57254
1.39012
1.52234
1.8166
2.16549
2.49283
2.76687
2.97654
3.13111
3.24836
3.34804
3.45441
3.61384
3.84662
4.19129
4.69835
5.24881
5.67935
5.86679
5.82248
5.58794
5.22592
4.78299
4.28675
3.76132
3.2234
2.67437
2.12253
1.60617
1.16646
1.35948
1.14371
1.20886
1.44068
1.75099
2.0646
2.34284
2.57204
2.75734
2.91421
3.06318
3.24161
3.48693
3.8207
4.25982
4.852
5.42425
5.81494
5.94374
5.8459
5.57479
5.20121
4.7598
4.27472
3.76493
3.23773
2.69767
2.16113
1.66088
1.23233
1.25325
1.01892
1.0135
1.16387
1.41346
1.69552
1.96582
2.20416
2.41292
2.60412
2.79992
3.04037
3.37419
3.80661
4.34137
5.00545
5.57754
5.9185
5.99289
5.84975
5.56036
5.18346
4.74942
4.27918
3.77679
3.24826
2.71281
2.1879
1.70211
1.28612
1.26539
1.0362
0.959292
1.01734
1.18153
1.40777
1.65163
1.88637
2.10881
2.32761
2.56679
2.86084
3.2835
3.80949
4.44063
5.15992
5.71303
6.00076
6.03122
5.85759
5.55667
5.18761
4.77248
4.30526
3.79242
3.25711
2.72158
2.20475
1.73153
1.32875
1.38167
1.16388
1.04683
1.01474
1.08669
1.22993
1.42163
1.63324
1.85674
2.09417
2.37087
2.72217
3.22452
3.84964
4.56623
5.32322
5.84533
6.08358
6.08659
5.90876
5.62597
5.26653
4.83941
4.34882
3.81589
3.26701
2.72641
2.21403
1.75131
1.36157
1.63575
1.4178
1.27095
1.17669
1.144
1.1857
1.30099
1.46225
1.66946
1.91414
2.22503
2.63436
3.19546
3.93077
4.73272
5.51472
6.00359
6.20534
6.20254
6.04718
5.77992
5.41731
4.95381
4.4199
3.8534
3.28225
2.73077
2.21873
1.76397
1.38626
2.04514
1.80509
1.62391
1.47547
1.35872
1.29273
1.29636
1.39251
1.56432
1.80429
2.14551
2.59873
3.24647
4.07977
4.96996
5.77381
6.23999
6.43339
6.46097
6.31931
6.02886
5.64617
5.13441
4.53578
3.91719
3.31104
2.74051
2.2232
1.77278
1.40513
2.61519
2.33428
2.10774
1.90496
1.71644
1.55491
1.4536
1.44636
1.55066
1.77259
2.13181
2.66645
3.41558
4.34292
5.3372
6.17616
6.65326
6.8898
6.92969
6.75315
6.44416
5.9966
5.41174
4.73672
4.03437
3.37117
2.76722
2.23523
1.78307
1.42171
3.36434
3.02694
2.74372
2.48245
2.22832
1.98488
1.78453
1.67579
1.69737
1.88724
2.27845
2.8955
3.77047
4.83474
5.95843
6.86935
7.40768
7.67297
7.6896
7.45968
7.09557
6.53904
5.8433
5.06102
4.25936
3.5014
2.83701
2.27133
1.80549
1.44287
4.33508
3.93142
3.58522
3.26422
2.9503
2.63878
2.35502
2.15358
2.09332
2.24426
2.67078
3.40128
4.452
5.71982
7.04705
8.07679
8.68024
8.9644
8.9105
8.64019
8.12417
7.39573
6.52848
5.5953
4.65803
3.78556
3.01281
2.37159
1.86541
1.48415
5.61685
5.14767
4.74398
4.37382
4.01616
3.6593
3.32046
3.05379
2.93551
3.06188
3.55061
4.44171
5.74214
7.31118
8.94154
10.1285
10.798
11.0746
10.9453
10.5247
9.77214
8.78219
7.65786
6.49241
5.35804
4.31162
3.39417
2.63428
2.03273
1.5909
7.39478
6.881
6.44744
6.06223
5.70148
5.34769
5.0125
4.74792
4.63929
4.80921
5.42501
6.55973
8.20774
10.1877
12.2402
13.5887
14.3002
14.5307
14.2712
13.5632
12.4585
11.0838
9.58317
8.06729
6.62216
5.30505
4.15121
3.18267
2.4128
1.84502
10.0594
9.55581
9.1538
8.82395
8.54148
8.28577
8.07112
7.94581
7.999
8.37182
9.24693
10.7446
12.8499
15.3212
17.8801
19.3009
19.9795
20.0698
19.5444
18.4431
16.8611
14.96
12.9385
10.9249
9.00768
7.25976
5.70921
4.37599
3.28417
2.45256
14.3819
14.0131
13.7312
13.563
13.4884
13.4789
13.5698
13.7999
14.2522
15.0542
16.3767
18.3703
21.0049
23.9536
26.9329
28.1457
28.6095
28.3745
27.4557
25.9086
23.8239
21.3483
18.7387
16.1206
13.5786
11.2085
9.03313
7.07601
5.38192
4.0232
21.4891
21.377
21.4285
21.6173
21.8972
22.3003
22.8814
23.6447
24.6557
26.028
27.902
30.4178
33.5153
36.7133
39.6046
39.8249
39.3617
38.3057
36.9483
35.1831
33.0897
30.7093
27.9634
24.9711
21.8909
18.8886
15.9438
13.0998
10.4445
8.14681
32.1331
32.204
32.7062
33.4626
34.3659
35.3688
36.4062
37.5843
38.9822
40.7216
42.9169
45.6356
48.7519
51.4571
52.8766
50.6496
48.9139
47.0354
45.4247
43.7739
42.155
40.5108
38.7767
36.8224
34.4482
31.5378
28.3142
24.8443
21.2578
17.8515
42.9343
43.348
44.4387
45.8113
47.2045
48.5014
49.6848
50.8472
52.1157
53.6285
55.4843
57.6157
59.9402
60.9429
60.1439
55.5499
52.663
50.1742
48.4614
47.1879
46.4092
45.9982
45.8209
45.6339
45.1508
44.1417
42.526
40.3191
37.5061
34.2717
43.6406
44.8192
46.5922
48.5003
50.1785
51.4666
52.4172
53.2
53.9989
55.0147
56.2808
57.5729
58.5405
58.0857
55.3507
49.6395
46.297
43.6684
42.0414
41.0434
40.7711
41.1765
42.0715
43.1868
44.2534
45.025
45.3523
45.2118
44.6748
43.8527
14.7353
18.4702
19.858
20.517
20.8443
20.7818
20.3723
19.6922
18.7988
17.7514
16.5716
15.3201
14.002
12.7286
11.5505
10.6499
10.2658
11.2967
13.9859
16.7675
17.8774
16.9854
14.5521
11.2857
7.76956
4.49474
1.99829
0.641888
0.125951
0.494454
8.34608
9.18153
9.50405
9.62891
9.67778
9.59511
9.37151
9.03015
8.60007
8.1029
7.56426
6.99346
6.42652
5.86961
5.39247
5.01682
4.92737
5.56862
7.12568
8.73392
9.49204
9.25644
8.31519
6.96883
5.4154
3.72483
2.09185
0.713967
0.217236
0.235659
7.65145