/*--------------------------------*- C++ -*----------------------------------*\
| =========                 |                                                 |
| \\      /  F ield         | OpenFOAM: The Open Source CFD Toolbox           |
|  \\    /   O peration     | Version:  5.0                                   |
|   \\  /    A nd           | Web:      www.OpenFOAM.org                      |
|    \\/     M anipulation  |                                                 |
\*---------------------------------------------------------------------------*/
FoamFile
{
    version     2.0;
    format      ascii;
    class       volScalarField;
    location    "1400/air";
    object      k;
}
// * * * * * * * * * * * * * * * * * * * * * * * * * * * * * * * * * * * * * //

dimensions      [0 2 -2 0 0 0 0];

internalField   nonuniform List<scalar> 
243000
(
0.0652713
0.0744397
0.0778327
0.079073
0.0785634
0.0768049
0.0741561
0.0709171
0.0673251
0.063572
0.0597514
0.0559487
0.0521789
0.0485737
0.0452191
0.0423195
0.0400156
0.0384919
0.0376537
0.0372034
0.0366471
0.0355362
0.0335925
0.0307991
0.029094
0.0265385
0.0240683
0.0227209
0.0193952
0.0180371
0.0965603
0.109827
0.11357
0.113992
0.112282
0.1091
0.104965
0.100267
0.0952712
0.0901525
0.0849973
0.0799074
0.074942
0.070311
0.0661438
0.0627119
0.060174
0.0587867
0.0583293
0.0583472
0.0581345
0.0570937
0.0547764
0.0510744
0.0461423
0.0407881
0.0352181
0.0296525
0.0242631
0.0213324
0.11056
0.124856
0.130022
0.131099
0.12954
0.126244
0.121791
0.116634
0.111076
0.105341
0.0995447
0.0938431
0.0883276
0.0832692
0.0788313
0.0753466
0.0729814
0.0719574
0.0719034
0.0722178
0.0721295
0.0710049
0.0683719
0.0640921
0.0584318
0.0518366
0.0447563
0.037214
0.0301943
0.0248701
0.114753
0.13047
0.137632
0.140039
0.139453
0.136837
0.13279
0.127811
0.122257
0.116404
0.110415
0.104508
0.0988125
0.0936641
0.0892666
0.086016
0.0840719
0.0835767
0.0839651
0.0845231
0.0844559
0.0831562
0.0801961
0.0754437
0.0691427
0.0617012
0.0535832
0.0447751
0.0364341
0.0296782
0.112969
0.128926
0.13826
0.142853
0.143879
0.142437
0.13925
0.134876
0.129717
0.124106
0.11826
0.112454
0.106864
0.101891
0.097777
0.0949786
0.0936291
0.0937512
0.0945896
0.095348
0.0952411
0.0937243
0.0904462
0.0853084
0.0785372
0.0705115
0.0616977
0.0520675
0.0426457
0.0348393
0.107308
0.123419
0.134702
0.141285
0.144109
0.14416
0.142105
0.138642
0.134147
0.129039
0.123581
0.118107
0.112844
0.108249
0.104606
0.102426
0.101794
0.102574
0.103854
0.104782
0.104609
0.102862
0.0992855
0.0938329
0.0867247
0.0783138
0.0690458
0.0589049
0.0486463
0.0400033
0.0984453
0.115108
0.128013
0.136484
0.141168
0.142857
0.142217
0.139769
0.13606
0.13167
0.126789
0.121821
0.11705
0.112992
0.109963
0.108529
0.108688
0.110142
0.11185
0.11293
0.112683
0.110715
0.106867
0.101157
0.0938116
0.0851614
0.0756177
0.0651815
0.0543756
0.0450265
0.0879203
0.105038
0.119223
0.129344
0.135816
0.139165
0.139965
0.138751
0.1361
0.132461
0.128209
0.123892
0.119737
0.116333
0.114028
0.113436
0.114422
0.11655
0.118668
0.119892
0.11958
0.117415
0.11333
0.107412
0.0999027
0.0911174
0.0814304
0.0708702
0.0597693
0.0498336
0.0777848
0.0950171
0.109721
0.120781
0.128761
0.133658
0.135877
0.135956
0.134396
0.131688
0.128273
0.12461
0.121134
0.11846
0.116959
0.117266
0.119096
0.121885
0.124395
0.125763
0.125404
0.123076
0.118796
0.112718
0.105102
0.096257
0.0865347
0.0759359
0.0646697
0.0543365
0.068859
0.085074
0.100245
0.112163
0.120966
0.12694
0.130442
0.131768
0.131348
0.129634
0.127077
0.124182
0.121439
0.119543
0.118891
0.120121
0.1228
0.126224
0.12911
0.130626
0.130248
0.127801
0.123374
0.11718
0.109506
0.100666
0.0909759
0.0803628
0.0690272
0.0585121
0.0625879
0.075467
0.090627
0.103408
0.113153
0.119977
0.124247
0.12662
0.127276
0.126564
0.124895
0.122814
0.120827
0.119725
0.119942
0.122093
0.125604
0.129641
0.132885
0.134557
0.134196
0.13168
0.127158
0.120894
0.113207
0.104432
0.0947537
0.084166
0.0728266
0.0622744
0.0607159
0.0672924
0.0810149
0.0943645
0.105107
0.112909
0.118051
0.12112
0.122542
0.12274
0.121942
0.12067
0.119449
0.119143
0.120218
0.123263
0.127565
0.132194
0.135783
0.137625
0.13732
0.134788
0.130228
0.123946
0.116304
0.107569
0.0979336
0.0873946
0.0761991
0.0656695
0.0648467
0.063056
0.072335
0.0851504
0.0967078
0.10557
0.111706
0.115593
0.117683
0.118453
0.118424
0.117915
0.117441
0.117904
0.119807
0.123704
0.128742
0.133928
0.137868
0.139893
0.139685
0.137192
0.132649
0.126416
0.118826
0.110153
0.100566
0.090085
0.0791696
0.0687148
0.0753128
0.0664692
0.0672285
0.0766477
0.0881008
0.0978837
0.105101
0.10993
0.112789
0.114161
0.114581
0.114714
0.114926
0.116107
0.118789
0.123476
0.129181
0.134878
0.139185
0.141418
0.141349
0.138946
0.134493
0.128349
0.120836
0.112239
0.102706
0.0922903
0.0817423
0.0714183
0.0885305
0.0779393
0.0697114
0.071435
0.0801752
0.0900463
0.0982083
0.104054
0.107783
0.109845
0.110782
0.11126
0.112028
0.113848
0.11724
0.122641
0.128975
0.135135
0.139757
0.142254
0.142363
0.140118
0.135817
0.129789
0.122386
0.11388
0.104413
0.0942025
0.0839871
0.0738073
0.102305
0.0930382
0.0807628
0.0732328
0.0752392
0.0829057
0.0912454
0.0979709
0.102619
0.105449
0.106975
0.107847
0.108905
0.111228
0.115229
0.12125
0.128124
0.134739
0.139732
0.142465
0.142785
0.140765
0.136647
0.130783
0.123521
0.115123
0.105739
0.0959163
0.0859737
0.0759225
0.116714
0.108099
0.0965525
0.0836644
0.0765872
0.0784323
0.0849719
0.0918978
0.0973263
0.10095
0.103122
0.104455
0.105784
0.10836
0.11283
0.119361
0.126695
0.1337
0.139036
0.142079
0.142651
0.140866
0.137011
0.13137
0.124284
0.116021
0.106867
0.0974284
0.0877326
0.077793
0.131745
0.123432
0.112946
0.0990419
0.0857437
0.0792532
0.0809464
0.0864533
0.0920956
0.0963862
0.0992142
0.101057
0.102717
0.105362
0.110127
0.117037
0.124742
0.132089
0.137766
0.141147
0.14202
0.140519
0.136934
0.131577
0.124724
0.11663
0.107895
0.0987795
0.0892944
0.0794434
0.147351
0.139016
0.128776
0.115518
0.100122
0.0868465
0.0811637
0.0827982
0.0873925
0.091908
0.0952859
0.0976448
0.0996771
0.102471
0.10724
0.114357
0.122329
0.129967
0.135975
0.139717
0.140942
0.139793
0.13653
0.131474
0.124895
0.117159
0.10882
0.0999919
0.0906822
0.0808941
0.163428
0.154839
0.144536
0.131895
0.116412
0.0996751
0.0869594
0.0823668
0.0840233
0.0878433
0.0914492
0.0942463
0.0966564
0.0996535
0.10436
0.111427
0.119536
0.127398
0.133716
0.137838
0.139467
0.138717
0.13585
0.13115
0.124886
0.117646
0.109672
0.101093
0.0919205
0.0821627
0.179849
0.170843
0.160291
0.147989
0.132834
0.114989
0.0975926
0.0862427
0.0829747
0.0847204
0.0879239
0.0909389
0.0936736
0.0968956
0.101602
0.10839
0.116466
0.12446
0.131058
0.135559
0.137633
0.137329
0.134928
0.130653
0.124925
0.118131
0.110483
0.102114
0.0930385
0.083272
0.196455
0.186933
0.17607
0.163874
0.148906
0.130856
0.111103
0.0942628
0.0850576
0.0831907
0.0850459
0.0878679
0.0907877
0.0942106
0.0989503
0.10554
0.113377
0.121286
0.128081
0.132936
0.13548
0.135671
0.133833
0.130182
0.125008
0.118645
0.111295
0.103096
0.0940748
0.0842543
0.213102
0.20311
0.192531
0.179937
0.164747
0.146546
0.125753
0.105287
0.0904342
0.0838371
0.0832464
0.0852625
0.088108
0.0916455
0.09642
0.102865
0.110505
0.118319
0.1252
0.13034
0.133357
0.134117
0.132874
0.129819
0.125178
0.119233
0.112167
0.104102
0.0950833
0.0851552
0.229928
0.220161
0.208963
0.195806
0.18024
0.16185
0.14055
0.118001
0.0986713
0.0870045
0.0829919
0.0834557
0.0858398
0.0893316
0.0940992
0.100424
0.1079
0.115625
0.122581
0.127989
0.131439
0.132764
0.132098
0.129611
0.125488
0.119963
0.113173
0.105228
0.0961608
0.0860482
0.246623
0.236348
0.224672
0.211155
0.195351
0.176812
0.15531
0.131693
0.109254
0.0929165
0.084857
0.0829978
0.0844164
0.0876292
0.0923134
0.0985279
0.10585
0.113478
0.120485
0.12612
0.129954
0.131815
0.131705
0.129731
0.126109
0.120992
0.114477
0.106628
0.0974663
0.0870812
0.262164
0.251734
0.239948
0.226376
0.210585
0.192146
0.17076
0.146789
0.122468
0.102317
0.0900361
0.0851921
0.0850469
0.0876806
0.0922168
0.098336
0.105522
0.113041
0.120046
0.125827
0.129935
0.132123
0.13247
0.13097
0.127754
0.122976
0.116674
0.108843
0.0994294
0.0885449
0.279046
0.268642
0.256941
0.243561
0.22811
0.210192
0.189439
0.165893
0.140948
0.118254
0.102155
0.0939747
0.0918246
0.09358
0.0979362
0.103961
0.110929
0.118132
0.124858
0.130451
0.134475
0.136701
0.137163
0.13582
0.132747
0.128052
0.121717
0.113664
0.103755
0.0919338
0.301358
0.291312
0.280137
0.26764
0.253555
0.237482
0.218932
0.197665
0.174337
0.151539
0.13351
0.122887
0.119032
0.119962
0.124112
0.129865
0.136092
0.142286
0.147827
0.152206
0.155094
0.156334
0.155937
0.15382
0.150001
0.144547
0.137426
0.128403
0.117134
0.103192
0.34491
0.336591
0.328261
0.319807
0.310902
0.300922
0.289057
0.274831
0.258198
0.240606
0.225653
0.216318
0.212716
0.213509
0.217139
0.221703
0.225748
0.229182
0.231615
0.2328
0.23269
0.231165
0.228235
0.223777
0.217462
0.20948
0.200117
0.188657
0.174753
0.15763
0.507414
0.506237
0.507845
0.50919
0.509769
0.50907
0.506557
0.502106
0.494857
0.485102
0.476366
0.470306
0.46671
0.465575
0.466263
0.468034
0.468941
0.470159
0.471194
0.472297
0.473328
0.474223
0.474698
0.474437
0.470926
0.465272
0.459846
0.4512
0.440098
0.426276
0.0959766
0.113113
0.120163
0.123028
0.122901
0.120652
0.116918
0.112211
0.106877
0.101201
0.0953393
0.0895172
0.0838238
0.0785602
0.0738752
0.0701345
0.0674793
0.0661718
0.0660066
0.0662215
0.0655589
0.0629854
0.0579828
0.0506688
0.0417909
0.0323071
0.0242908
0.0218279
0.0205914
0.019489
0.147695
0.171369
0.177856
0.177084
0.172284
0.165148
0.156822
0.148
0.139078
0.130335
0.121888
0.113952
0.106564
0.100107
0.0947284
0.0908869
0.0886223
0.0883213
0.0895116
0.0912295
0.0919015
0.0902016
0.0851043
0.0765138
0.0653622
0.0527601
0.0404299
0.0308017
0.0303722
0.0273712
0.171739
0.19917
0.209612
0.211318
0.207859
0.201312
0.192935
0.183577
0.173764
0.163915
0.154257
0.145133
0.136661
0.129405
0.123605
0.119859
0.118118
0.11857
0.120353
0.122325
0.122856
0.120573
0.114354
0.104012
0.0904488
0.0748135
0.0588659
0.0437445
0.036221
0.0339752
0.176971
0.206477
0.221562
0.226763
0.226176
0.221871
0.215061
0.206695
0.197422
0.187766
0.178084
0.168848
0.160291
0.153133
0.147727
0.144761
0.144045
0.145404
0.147653
0.149566
0.149609
0.14652
0.139258
0.127607
0.112396
0.0947211
0.0762705
0.0577344
0.0445935
0.0375529
0.172095
0.200422
0.219095
0.229063
0.232493
0.231225
0.226758
0.220149
0.212194
0.203486
0.194531
0.18591
0.177984
0.171611
0.167224
0.165583
0.166241
0.168626
0.171309
0.173058
0.172498
0.168569
0.160404
0.14781
0.131537
0.112601
0.0925868
0.0719558
0.0550426
0.043715
0.160461
0.187973
0.209307
0.222946
0.230137
0.232314
0.23054
0.226081
0.219927
0.212635
0.204927
0.197442
0.190675
0.185605
0.182721
0.182836
0.185085
0.18857
0.191661
0.193206
0.192019
0.187269
0.178324
0.165059
0.148149
0.128518
0.107618
0.0858073
0.0665274
0.0519388
0.143328
0.169546
0.193439
0.210576
0.221526
0.227111
0.228322
0.226423
0.222041
0.216426
0.210381
0.204409
0.199199
0.195827
0.194829
0.197019
0.200996
0.205604
0.209085
0.210422
0.208625
0.203108
0.193485
0.179742
0.162497
0.142585
0.121294
0.0989394
0.078263
0.0613618
0.120946
0.146547
0.173054
0.193716
0.208297
0.217192
0.22119
0.221757
0.219679
0.216218
0.211798
0.207579
0.204236
0.202843
0.204063
0.208534
0.214313
0.220031
0.223881
0.225037
0.222678
0.216475
0.206274
0.192196
0.174827
0.154936
0.133626
0.111178
0.0897934
0.071312
0.101476
0.124257
0.151215
0.174359
0.192008
0.203818
0.210113
0.213053
0.213444
0.212259
0.20995
0.207728
0.206349
0.207167
0.210826
0.217683
0.225308
0.23209
0.236297
0.237314
0.23447
0.227681
0.217016
0.202722
0.185387
0.165733
0.144668
0.122502
0.10096
0.0813304
0.0865467
0.104722
0.13029
0.155034
0.174751
0.188214
0.196495
0.201604
0.20427
0.20531
0.205352
0.205301
0.206056
0.20925
0.215421
0.224704
0.234189
0.241978
0.246536
0.247464
0.244237
0.236994
0.225985
0.211589
0.194422
0.175157
0.154584
0.132781
0.111406
0.0910696
0.0761053
0.0885011
0.111063
0.136004
0.157243
0.172407
0.182111
0.188797
0.19345
0.196508
0.198606
0.200811
0.203769
0.20934
0.21813
0.229813
0.241096
0.249861
0.254768
0.255669
0.252184
0.24463
0.233416
0.219043
0.202163
0.18345
0.1633
0.141988
0.121062
0.100338
0.0712438
0.0763778
0.094252
0.117601
0.139632
0.156441
0.167641
0.175938
0.181967
0.186724
0.19067
0.194753
0.199873
0.207878
0.219202
0.233189
0.246142
0.255888
0.26114
0.262089
0.258479
0.25077
0.239504
0.225307
0.208868
0.190592
0.170932
0.150222
0.129796
0.109097
0.0730392
0.0701966
0.0811069
0.10082
0.122293
0.140307
0.153252
0.163118
0.170574
0.176582
0.181963
0.187686
0.194728
0.205065
0.218832
0.234978
0.249456
0.260157
0.265796
0.266871
0.263274
0.255575
0.244423
0.230598
0.214576
0.196772
0.177642
0.157612
0.137647
0.117144
0.0816367
0.0727494
0.0742198
0.0871866
0.10635
0.124421
0.138965
0.150405
0.15919
0.166398
0.172939
0.179922
0.188652
0.201162
0.2172
0.235313
0.251136
0.262735
0.26888
0.270157
0.266707
0.25919
0.24841
0.235006
0.219438
0.20214
0.183591
0.16442
0.14474
0.124423
0.096234
0.0843174
0.0775483
0.0809714
0.0938745
0.110076
0.125162
0.137868
0.147841
0.156152
0.163812
0.171875
0.181956
0.196393
0.214466
0.23432
0.251469
0.263731
0.270495
0.27209
0.268918
0.261851
0.251559
0.238635
0.223588
0.206853
0.189047
0.170553
0.151112
0.130953
0.1168
0.103449
0.0918817
0.0853173
0.0886927
0.0996756
0.112914
0.12581
0.136723
0.146039
0.154739
0.163847
0.17497
0.190983
0.21078
0.232123
0.25036
0.263629
0.270853
0.272835
0.270205
0.263681
0.253939
0.241613
0.227171
0.211118
0.19417
0.176059
0.156801
0.136758
0.143618
0.129259
0.115324
0.102029
0.094322
0.0959071
0.104357
0.115315
0.126318
0.136319
0.145903
0.155947
0.168106
0.185169
0.206323
0.228877
0.248068
0.262082
0.270021
0.272583
0.270551
0.264724
0.255704
0.244104
0.230381
0.215288
0.198934
0.181066
0.161885
0.141887
0.176537
0.161322
0.145737
0.128552
0.112321
0.102547
0.101984
0.108229
0.117525
0.127444
0.137555
0.148365
0.161498
0.17923
0.20133
0.224802
0.244812
0.259575
0.268277
0.27157
0.270246
0.265224
0.25708
0.246348
0.233694
0.219428
0.203388
0.185667
0.166454
0.146407
0.214969
0.198805
0.181616
0.161852
0.140172
0.120606
0.108908
0.106849
0.111817
0.120159
0.130082
0.141367
0.155308
0.173655
0.196171
0.220241
0.240944
0.256468
0.265993
0.270172
0.269789
0.265645
0.258617
0.249043
0.237297
0.223571
0.20771
0.189993
0.170621
0.150412
0.25733
0.240409
0.22177
0.199895
0.174569
0.148022
0.12584
0.113321
0.11082
0.115555
0.124132
0.135328
0.149787
0.16866
0.19148
0.215778
0.23706
0.253377
0.263794
0.268999
0.269823
0.267057
0.261203
0.252657
0.241668
0.228049
0.212145
0.194237
0.174536
0.154032
0.302653
0.285177
0.265233
0.24141
0.213218
0.181766
0.151346
0.128334
0.116493
0.114876
0.120622
0.130783
0.145342
0.164599
0.187802
0.212485
0.234261
0.251443
0.26312
0.269386
0.271345
0.269802
0.265015
0.257389
0.246876
0.233291
0.217035
0.198663
0.178401
0.157409
0.350336
0.332422
0.311299
0.285633
0.254933
0.219774
0.183273
0.151316
0.12963
0.120003
0.120507
0.128674
0.142804
0.162248
0.185902
0.21122
0.234189
0.252263
0.264814
0.272062
0.27506
0.274634
0.27078
0.263825
0.253557
0.239862
0.222954
0.203712
0.182539
0.160751
0.399985
0.381772
0.359731
0.332458
0.299628
0.261598
0.220633
0.181666
0.150894
0.13246
0.1264
0.13077
0.14344
0.162974
0.18742
0.213743
0.237831
0.256969
0.270464
0.278672
0.282593
0.283011
0.279736
0.273029
0.262767
0.24864
0.23097
0.210288
0.187594
0.164501
0.452087
0.433798
0.411247
0.383052
0.348909
0.309027
0.265042
0.22095
0.182584
0.155515
0.14206
0.141082
0.151535
0.170975
0.196502
0.224366
0.249885
0.270118
0.284444
0.293403
0.297775
0.298303
0.294724
0.287466
0.276538
0.26163
0.242556
0.220202
0.195129
0.169688
0.508181
0.490696
0.468742
0.441059
0.407353
0.367625
0.322872
0.276162
0.232593
0.198294
0.177569
0.170902
0.177985
0.197274
0.224745
0.254777
0.281519
0.302538
0.317236
0.325836
0.329198
0.328118
0.322603
0.313214
0.300124
0.283128
0.261843
0.23643
0.208006
0.178929
0.576043
0.560977
0.541826
0.517395
0.487358
0.451495
0.410199
0.365624
0.321799
0.284733
0.260003
0.249673
0.254294
0.27367
0.303867
0.335739
0.362103
0.381992
0.394437
0.399667
0.398673
0.392259
0.381213
0.366195
0.347601
0.325395
0.2991
0.268468
0.233313
0.19729
0.675696
0.666174
0.653749
0.63735
0.616611
0.591026
0.560185
0.525676
0.490317
0.459512
0.439137
0.431668
0.438598
0.460205
0.491989
0.522914
0.545513
0.559898
0.565322
0.561927
0.550653
0.533307
0.511098
0.484765
0.454891
0.421719
0.384671
0.342851
0.295452
0.244294
0.851397
0.849766
0.847414
0.84299
0.836622
0.827144
0.812775
0.794872
0.774855
0.757408
0.747878
0.748652
0.761351
0.785177
0.814564
0.84033
0.856577
0.863829
0.860784
0.847532
0.825674
0.797349
0.763802
0.725474
0.682577
0.635573
0.583731
0.524852
0.457665
0.382948
1.07906
1.08227
1.09444
1.10762
1.12059
1.12857
1.12796
1.12132
1.10974
1.09991
1.09601
1.10011
1.11103
1.12811
1.14521
1.1587
1.16609
1.16786
1.16206
1.14913
1.13011
1.1067
1.07944
1.04821
1.01181
0.969623
0.920463
0.861027
0.790915
0.709882
1.15493
1.16106
1.1836
1.20642
1.22158
1.22684
1.22405
1.21571
1.20533
1.19656
1.19312
1.19454
1.19717
1.20066
1.19957
1.19646
1.19461
1.19171
1.18767
1.18244
1.17664
1.17072
1.16528
1.16025
1.15397
1.14464
1.13145
1.11254
1.08789
1.05651
0.128501
0.14946
0.15639
0.159414
0.159071
0.156128
0.151361
0.145399
0.138659
0.131509
0.124134
0.116829
0.109661
0.103058
0.097201
0.092644
0.0896589
0.08919
0.0914104
0.0945865
0.0957146
0.0928276
0.0852059
0.0732994
0.0584694
0.042384
0.0271781
0.0226442
0.0212311
0.0206929
0.202426
0.233087
0.242503
0.242063
0.235982
0.226762
0.216014
0.204606
0.193006
0.181543
0.170321
0.159602
0.149368
0.140189
0.132268
0.12635
0.122833
0.123616
0.128794
0.136024
0.141009
0.140799
0.133345
0.118776
0.0988988
0.076073
0.0535532
0.0360115
0.0324291
0.0293904
0.241477
0.276141
0.290852
0.293801
0.289499
0.280934
0.269942
0.25761
0.244565
0.23131
0.218118
0.205412
0.193321
0.182632
0.17371
0.167405
0.164041
0.165469
0.171388
0.179255
0.184595
0.184315
0.175848
0.159066
0.135668
0.107911
0.0794739
0.0537206
0.0408097
0.0376379
0.259771
0.295241
0.313182
0.319882
0.318935
0.31287
0.303517
0.292091
0.279371
0.266006
0.252457
0.2393
0.226849
0.216063
0.207457
0.201876
0.199418
0.2015
0.207462
0.214833
0.219457
0.218417
0.209103
0.191135
0.16591
0.135509
0.103475
0.072455
0.0514635
0.0423818
0.262907
0.293954
0.31556
0.32798
0.331834
0.329192
0.322501
0.31299
0.301624
0.289192
0.276352
0.263809
0.252067
0.242243
0.234929
0.230891
0.229849
0.232628
0.238319
0.244649
0.248031
0.245855
0.235705
0.21708
0.191084
0.159519
0.12557
0.0914221
0.0647244
0.0498227
0.257304
0.283994
0.30736
0.323469
0.331715
0.333487
0.330191
0.323267
0.313972
0.303224
0.291902
0.2808
0.270625
0.262625
0.257385
0.255543
0.256229
0.259728
0.264976
0.269999
0.271875
0.268312
0.257296
0.238285
0.21214
0.180359
0.145675
0.109924
0.0795346
0.0597859
0.245524
0.266884
0.290418
0.309615
0.322272
0.3283
0.328812
0.324981
0.318177
0.309658
0.300555
0.291572
0.283683
0.278241
0.275747
0.27664
0.279221
0.28344
0.288156
0.291759
0.291994
0.286906
0.274982
0.255724
0.229792
0.198395
0.163797
0.127589
0.0950291
0.0714907
0.225185
0.242189
0.266053
0.288313
0.305184
0.315465
0.319793
0.319509
0.315809
0.310189
0.303422
0.297102
0.292113
0.289853
0.290717
0.294735
0.299298
0.304206
0.308342
0.310533
0.309037
0.302397
0.289547
0.27011
0.244598
0.213969
0.180123
0.144061
0.110551
0.084129
0.196062
0.210805
0.23583
0.261574
0.282375
0.296698
0.304824
0.308047
0.307746
0.305188
0.301522
0.298231
0.296615
0.298102
0.302856
0.310227
0.316794
0.322332
0.325875
0.326705
0.323489
0.315343
0.301592
0.282015
0.257043
0.227492
0.194444
0.15904
0.125387
0.0969984
0.168609
0.180111
0.204809
0.232114
0.255864
0.273772
0.285403
0.292042
0.295074
0.295829
0.295568
0.295785
0.297845
0.303602
0.31252
0.323396
0.331948
0.338043
0.341019
0.340547
0.335707
0.326174
0.311588
0.291925
0.26762
0.238978
0.206915
0.172558
0.139297
0.109632
0.144854
0.151808
0.174493
0.202329
0.228144
0.24862
0.26312
0.272842
0.279045
0.283095
0.286344
0.290297
0.29642
0.306775
0.320035
0.334421
0.344956
0.351513
0.353976
0.352274
0.345982
0.335226
0.319924
0.300246
0.276476
0.248718
0.217801
0.18473
0.152172
0.121875
0.126577
0.127549
0.146328
0.173239
0.200156
0.222668
0.239616
0.251906
0.260834
0.267958
0.274636
0.2824
0.292837
0.308026
0.325663
0.343476
0.355924
0.36288
0.364894
0.362092
0.354559
0.342789
0.326917
0.307376
0.284011
0.257128
0.227398
0.195768
0.163901
0.133549
0.114984
0.109183
0.122085
0.146108
0.17283
0.196686
0.215709
0.230297
0.241705
0.251436
0.261236
0.272683
0.287545
0.307426
0.329595
0.350689
0.364944
0.372269
0.373916
0.370191
0.36166
0.349105
0.332888
0.313445
0.290559
0.264556
0.236115
0.205775
0.174507
0.144262
0.112767
0.100101
0.104789
0.123055
0.147576
0.171625
0.192147
0.208734
0.222362
0.234503
0.246963
0.261747
0.280989
0.305671
0.332031
0.35617
0.372092
0.379817
0.381195
0.376767
0.3675
0.354443
0.33818
0.318829
0.296464
0.271443
0.244244
0.214704
0.184003
0.15397
0.118675
0.102747
0.0985741
0.107898
0.126943
0.149098
0.16995
0.187948
0.203454
0.217747
0.232671
0.250203
0.273571
0.302807
0.3331
0.360013
0.377461
0.385692
0.38693
0.382052
0.372338
0.359122
0.342931
0.323857
0.302151
0.278229
0.251754
0.222735
0.192459
0.162663
0.133647
0.116352
0.106021
0.104743
0.115194
0.13184
0.150781
0.168954
0.185686
0.201737
0.218824
0.238882
0.265685
0.299039
0.332757
0.362319
0.38123
0.390096
0.391377
0.38633
0.37655
0.363494
0.347635
0.329035
0.308269
0.284954
0.258706
0.229982
0.199965
0.170376
0.159304
0.141108
0.127047
0.117578
0.115606
0.123742
0.137245
0.153319
0.170002
0.187092
0.205861
0.228329
0.25771
0.294606
0.331434
0.363273
0.383666
0.393326
0.3949
0.390058
0.380586
0.368063
0.352998
0.335332
0.314911
0.291537
0.265247
0.236567
0.206624
0.177167
0.195129
0.176049
0.159416
0.144282
0.132535
0.128109
0.132483
0.143254
0.157715
0.174604
0.194404
0.218923
0.250598
0.289865
0.329306
0.363332
0.38521
0.395874
0.398064
0.393894
0.385175
0.373712
0.35963
0.342481
0.321844
0.29814
0.271513
0.242617
0.212552
0.183124
0.239814
0.219458
0.2004
0.181101
0.162117
0.146667
0.139057
0.140762
0.150497
0.165334
0.185236
0.21114
0.244683
0.285326
0.326953
0.363132
0.386623
0.398561
0.401806
0.398877
0.391619
0.381214
0.367648
0.350406
0.329308
0.304942
0.277669
0.24828
0.217884
0.188358
0.291522
0.269394
0.247682
0.224743
0.20038
0.176479
0.157614
0.148226
0.149437
0.160609
0.179221
0.205679
0.240687
0.282683
0.325512
0.363692
0.389226
0.402802
0.407819
0.406767
0.400659
0.390779
0.37729
0.359671
0.337869
0.312288
0.283969
0.253762
0.222792
0.193011
0.348602
0.324314
0.299714
0.273264
0.24448
0.214284
0.186329
0.166091
0.15744
0.161227
0.176897
0.202995
0.238815
0.282204
0.327458
0.367463
0.395473
0.411178
0.417902
0.418342
0.413107
0.403385
0.389519
0.37117
0.348105
0.320814
0.290889
0.259422
0.227541
0.197257
0.409904
0.383363
0.355885
0.326114
0.293529
0.258522
0.223764
0.194373
0.175849
0.171101
0.181713
0.206177
0.242908
0.28805
0.335634
0.378005
0.408469
0.426101
0.434465
0.436053
0.431192
0.421002
0.406077
0.386384
0.361508
0.332282
0.299642
0.266094
0.232694
0.201464
0.47518
0.446739
0.416896
0.384458
0.348966
0.310521
0.271043
0.234817
0.207635
0.194436
0.197977
0.219911
0.257139
0.304605
0.355449
0.400808
0.433485
0.452849
0.462452
0.464488
0.45903
0.447294
0.43019
0.408027
0.380657
0.348495
0.313017
0.275895
0.239662
0.206528
0.545991
0.516698
0.485814
0.452258
0.415564
0.375652
0.33388
0.293702
0.260475
0.240206
0.236814
0.25473
0.292228
0.342895
0.398064
0.446753
0.480816
0.501363
0.51118
0.512252
0.504437
0.489321
0.468184
0.441759
0.41031
0.37414
0.334327
0.293067
0.252279
0.215117
0.62767
0.599767
0.570416
0.538575
0.503664
0.465468
0.424999
0.385078
0.350387
0.326884
0.319295
0.333934
0.370985
0.424799
0.484678
0.535624
0.569328
0.589294
0.597339
0.594795
0.581847
0.560534
0.53258
0.499192
0.46103
0.41861
0.372636
0.324207
0.276462
0.232629
0.733658
0.710836
0.686875
0.660878
0.632069
0.600195
0.5662
0.532489
0.502899
0.482632
0.476213
0.491102
0.528187
0.582708
0.644966
0.69426
0.724762
0.740902
0.744162
0.734632
0.713594
0.683294
0.64581
0.602628
0.554722
0.502821
0.447242
0.388636
0.328501
0.271754
0.889601
0.876401
0.861562
0.845776
0.82754
0.806717
0.784104
0.761696
0.74238
0.730371
0.729832
0.748162
0.785382
0.837224
0.894937
0.936395
0.959624
0.968946
0.965014
0.947674
0.91902
0.881271
0.835981
0.784298
0.727006
0.664917
0.597912
0.525513
0.448453
0.370595
1.11623
1.11345
1.1127
1.10977
1.10401
1.0951
1.08357
1.07112
1.06016
1.05449
1.05857
1.0776
1.11069
1.15265
1.19445
1.21795
1.22862
1.22909
1.21937
1.19991
1.17273
1.13943
1.10028
1.05463
1.00129
0.939939
0.870365
0.790742
0.700666
0.603243
1.34227
1.34417
1.35723
1.37073
1.37889
1.3788
1.37208
1.36133
1.35029
1.34332
1.34405
1.35515
1.37306
1.3921
1.40383
1.39696
1.38956
1.37881
1.36712
1.35343
1.33981
1.32719
1.3151
1.30103
1.28139
1.25127
1.20839
1.1522
1.08093
0.996011
1.35414
1.36793
1.39211
1.41471
1.42842
1.43123
1.42393
1.41083
1.3968
1.38629
1.3819
1.3832
1.38571
1.38512
1.37267
1.34607
1.32633
1.30827
1.29537
1.28652
1.28321
1.28545
1.29295
1.30322
1.31282
1.31806
1.31619
1.3068
1.28805
1.25969
0.16068
0.184598
0.190968
0.192711
0.191509
0.187646
0.181808
0.174655
0.166631
0.158142
0.149355
0.140605
0.131906
0.12381
0.11653
0.110942
0.107846
0.11014
0.118681
0.128689
0.13365
0.130865
0.120189
0.103005
0.0812623
0.057251
0.0344421
0.0227585
0.0213462
0.0210656
0.256579
0.291848
0.300164
0.299211
0.291951
0.281113
0.268552
0.255198
0.241497
0.227767
0.214028
0.200546
0.187187
0.174806
0.163749
0.15544
0.151604
0.157746
0.174234
0.193763
0.206555
0.208182
0.19683
0.174013
0.142685
0.10624
0.0703233
0.0410258
0.0314892
0.0296342
0.310916
0.34943
0.364075
0.367137
0.362019
0.352014
0.339187
0.324652
0.309042
0.29287
0.276371
0.259945
0.243705
0.228804
0.215893
0.206515
0.202658
0.210058
0.228384
0.249769
0.264028
0.266462
0.254384
0.228875
0.192817
0.149245
0.104305
0.0632532
0.0421925
0.0377695
0.343529
0.378783
0.397412
0.405109
0.403623
0.396395
0.385282
0.37151
0.35592
0.339205
0.321835
0.304327
0.287118
0.271543
0.258526
0.249515
0.246396
0.25443
0.272547
0.293129
0.306671
0.308739
0.296238
0.26991
0.231978
0.18516
0.135243
0.0867933
0.0548604
0.043443
0.358281
0.387989
0.410009
0.42279
0.425739
0.422346
0.414072
0.402207
0.387819
0.371812
0.354875
0.337632
0.320831
0.305966
0.294086
0.28647
0.284694
0.293116
0.310118
0.328565
0.340178
0.34106
0.328032
0.301531
0.263258
0.215508
0.163346
0.110693
0.0705367
0.0515369
0.358074
0.382192
0.405522
0.422662
0.43214
0.433675
0.429106
0.420032
0.407775
0.393496
0.378036
0.36218
0.34696
0.333974
0.324261
0.318871
0.318849
0.32757
0.342946
0.358572
0.367543
0.366584
0.352762
0.326308
0.28851
0.241255
0.188762
0.134127
0.0884818
0.062376
0.350153
0.368845
0.391883
0.412382
0.426405
0.432751
0.432582
0.426943
0.417576
0.405922
0.392927
0.379431
0.366848
0.3568
0.350173
0.347739
0.349702
0.358638
0.372091
0.384506
0.390457
0.387146
0.372287
0.345915
0.309027
0.263173
0.211199
0.155893
0.107134
0.0753178
0.333279
0.345632
0.368408
0.391866
0.410317
0.421507
0.426022
0.424598
0.418936
0.41034
0.400663
0.39045
0.381488
0.37535
0.372654
0.373745
0.377799
0.386825
0.398149
0.407187
0.409928
0.403993
0.387886
0.361543
0.325804
0.28149
0.230523
0.175755
0.12565
0.0895122
0.307095
0.314015
0.336782
0.363001
0.385597
0.401589
0.41091
0.413933
0.412494
0.408007
0.402193
0.396072
0.391712
0.390372
0.392399
0.397373
0.4035
0.412427
0.42149
0.427154
0.426599
0.417984
0.400508
0.374105
0.339375
0.296392
0.247047
0.193806
0.143575
0.104249
0.273936
0.277498
0.299637
0.327863
0.354133
0.374807
0.388854
0.396457
0.399515
0.399682
0.398525
0.397124
0.398266
0.4026
0.409955
0.418967
0.427029
0.43563
0.442361
0.444798
0.440909
0.429769
0.410894
0.384434
0.350234
0.308727
0.261265
0.209976
0.160437
0.119147
0.24212
0.24098
0.261221
0.290209
0.319117
0.343294
0.361526
0.373714
0.3814
0.386428
0.390342
0.394421
0.401979
0.412677
0.425634
0.438758
0.448537
0.456562
0.460981
0.460317
0.453298
0.439882
0.419629
0.39287
0.359245
0.31919
0.273837
0.224586
0.175807
0.133619
0.213897
0.20648
0.223578
0.252
0.28243
0.309361
0.331098
0.347364
0.359475
0.369396
0.378625
0.388771
0.403667
0.421024
0.439735
0.456896
0.46812
0.475348
0.477563
0.47392
0.464163
0.448802
0.427358
0.400235
0.367147
0.3287
0.285161
0.237416
0.189575
0.147191
0.190773
0.17652
0.188987
0.215165
0.245754
0.274543
0.299115
0.318971
0.335229
0.349731
0.364372
0.381009
0.403262
0.428012
0.452518
0.473476
0.485877
0.492132
0.49226
0.48593
0.473911
0.456985
0.434736
0.407229
0.374852
0.337605
0.29512
0.248522
0.201716
0.159577
0.173764
0.154213
0.160485
0.182204
0.211108
0.240475
0.267039
0.289937
0.309987
0.3289
0.348604
0.371995
0.401971
0.434024
0.464193
0.488619
0.50188
0.507141
0.50528
0.496729
0.482998
0.465001
0.442294
0.414671
0.382845
0.345855
0.303722
0.25805
0.212263
0.170672
0.167087
0.143525
0.142121
0.156747
0.181343
0.209351
0.236645
0.261678
0.284986
0.307995
0.332631
0.362584
0.400146
0.439324
0.474929
0.502446
0.516281
0.520605
0.517033
0.506831
0.491994
0.473465
0.450732
0.423249
0.391
0.353331
0.311188
0.266166
0.221308
0.180459
0.171429
0.147244
0.137931
0.143392
0.160451
0.18423
0.210116
0.2359
0.261537
0.288066
0.31747
0.353377
0.398087
0.444119
0.484897
0.515132
0.529344
0.532902
0.5281
0.516933
0.501639
0.483216
0.460643
0.432553
0.398884
0.360212
0.317706
0.273051
0.228992
0.188994
0.186909
0.163407
0.149416
0.145281
0.152766
0.169003
0.190248
0.214519
0.241061
0.270144
0.304104
0.345636
0.396054
0.448628
0.494342
0.526978
0.541534
0.544652
0.539351
0.528032
0.513108
0.494862
0.471581
0.44191
0.406594
0.366631
0.323462
0.278912
0.235497
0.196374
0.216603
0.192931
0.175576
0.164289
0.160506
0.165698
0.180062
0.19965
0.22502
0.255585
0.293334
0.339598
0.394309
0.453236
0.503698
0.538547
0.553648
0.556903
0.552131
0.541772
0.527144
0.508451
0.483228
0.451519
0.414248
0.372737
0.328656
0.283971
0.241027
0.202724
0.259081
0.234148
0.213684
0.196598
0.18373
0.177408
0.179813
0.19313