/*--------------------------------*- C++ -*----------------------------------*\
| =========                 |                                                 |
| \\      /  F ield         | OpenFOAM: The Open Source CFD Toolbox           |
|  \\    /   O peration     | Version:  5.0                                   |
|   \\  /    A nd           | Web:      www.OpenFOAM.org                      |
|    \\/     M anipulation  |                                                 |
\*---------------------------------------------------------------------------*/
FoamFile
{
    version     2.0;
    format      ascii;
    class       volScalarField;
    location    "1400/air";
    object      nut;
}
// * * * * * * * * * * * * * * * * * * * * * * * * * * * * * * * * * * * * * //

dimensions      [0 2 -1 0 0 0 0];

internalField   nonuniform List<scalar> 
243000
(
0.000134977
0.000138742
0.000136687
0.000132895
0.000127965
0.000122438
0.000116663
0.000110891
0.0001053
0.000100023
9.51041e-05
9.0575e-05
8.64142e-05
8.26963e-05
7.94599e-05
7.68685e-05
7.50539e-05
7.42126e-05
7.42968e-05
7.50399e-05
7.59462e-05
7.65144e-05
7.63395e-05
7.52029e-05
7.47846e-05
7.27076e-05
7.00189e-05
0.000309012
0.000284718
0.000284595
0.000582265
0.000620857
0.000631275
0.00063239
0.00062758
0.00061858
0.000606704
0.000592934
0.000577936
0.00056216
0.000545819
0.000529193
0.00051246
0.000496344
0.000481379
0.000468684
0.000459058
0.000453698
0.000451921
0.000452022
0.000451262
0.000447283
0.000438188
0.000423156
0.00039884
0.00037549
0.000349588
0.000322008
0.000291426
0.000273225
0.000623134
0.000662027
0.000675506
0.000678224
0.000674118
0.000665434
0.000653545
0.000639512
0.000624046
0.000607681
0.000590687
0.000573484
0.000556339
0.000540132
0.000525495
0.000513692
0.000505502
0.000501892
0.000501689
0.000502816
0.000502577
0.00049873
0.000489479
0.000473964
0.000452393
0.000426107
0.000395925
0.00036103
0.000325149
0.000295042
0.000634973
0.000676869
0.000695051
0.000701013
0.000699471
0.000692818
0.000682441
0.000669475
0.000654719
0.000638809
0.000622115
0.000605202
0.000588434
0.000572848
0.000559179
0.000548828
0.000542512
0.000540848
0.000542082
0.000543908
0.000543761
0.00053965
0.000530044
0.000514164
0.000492256
0.00046502
0.000433333
0.000396065
0.000357194
0.000322323
0.000630152
0.000672953
0.000696732
0.00070809
0.000710523
0.000706889
0.000698878
0.000687759
0.000674425
0.000659627
0.000643855
0.0006278
0.000611946
0.000597475
0.000585214
0.000576687
0.000572478
0.000572777
0.000575305
0.00057763
0.000577373
0.000572845
0.000562826
0.000546679
0.000524583
0.000497078
0.000464971
0.000427107
0.000386459
0.000349243
0.000614341
0.000658553
0.000687805
0.000704266
0.000711163
0.000711205
0.000706049
0.000697333
0.000685878
0.000672638
0.000658207
0.000643406
0.000628845
0.000615837
0.000605295
0.000598844
0.000596877
0.000599074
0.000602768
0.000605473
0.000605036
0.00060005
0.000589613
0.00057327
0.000551183
0.000523804
0.000491843
0.000454271
0.00041276
0.000374244
0.000588597
0.000636148
0.00067063
0.000692295
0.000703947
0.000708049
0.000706381
0.000700209
0.000690794
0.000679499
0.000666727
0.000653471
0.000640475
0.000629187
0.000620588
0.000616396
0.000616718
0.00062073
0.000625483
0.000628508
0.000627882
0.00062246
0.000611635
0.000595147
0.00057319
0.000546162
0.000514668
0.000477831
0.000436398
0.000397056
0.000556346
0.000607844
0.000647332
0.000674059
0.000690573
0.000698923
0.000700838
0.000697715
0.000690945
0.000681582
0.000670491
0.000659034
0.000647805
0.000638428
0.000631945
0.000630143
0.000632727
0.000638474
0.0006442
0.000647522
0.000646735
0.000640939
0.000629777
0.000613193
0.00059143
0.000564869
0.000534025
0.000498207
0.000457513
0.000417711
0.000523395
0.000578208
0.000621081
0.000651489
0.00067251
0.000685053
0.000690612
0.000690727
0.000686671
0.000679645
0.000670702
0.000660976
0.000651598
0.000644246
0.000640001
0.000640657
0.000645468
0.000652857
0.00065949
0.00066311
0.000662218
0.000656125
0.000644703
0.00062807
0.000606544
0.000580508
0.000550447
0.000515653
0.000475866
0.00043616
0.000492451
0.000547233
0.000593764
0.000627891
0.000651904
0.000667717
0.000676752
0.00068009
0.000678916
0.000674388
0.00066762
0.00065988
0.000652446
0.000647191
0.000645248
0.00064837
0.000655369
0.000664307
0.000671794
0.000675727
0.000674802
0.000668515
0.000656921
0.000640295
0.000619039
0.000593581
0.000564324
0.000530408
0.000491591
0.000452588
0.000469264
0.00051551
0.0005647
0.000602994
0.000630588
0.000649208
0.000660545
0.00066676
0.000668395
0.000666428
0.000661925
0.000656285
0.000650831
0.000647692
0.000648076
0.000653624
0.000662742
0.000673158
0.000681459
0.000685731
0.000684864
0.000678492
0.000666829
0.000650276
0.00062933
0.000604497
0.000575844
0.000542747
0.000504884
0.000466878
0.000461651
0.000486718
0.000534048
0.000576163
0.000607874
0.000629882
0.000643936
0.000652172
0.000655926
0.000656362
0.000654121
0.000650585
0.000647144
0.000646126
0.000648798
0.000656699
0.000667823
0.00067967
0.000688758
0.00069341
0.000692693
0.000686357
0.000674734
0.000658339
0.000637792
0.000613425
0.000585345
0.000552984
0.000516393
0.0004794
0.000476315
0.00047059
0.000504603
0.000547451
0.000583228
0.000609183
0.000626487
0.000637187
0.000642839
0.000644868
0.000644682
0.000643172
0.000641718
0.000642771
0.000647667
0.000657816
0.000670818
0.000684019
0.000693928
0.000698998
0.00069853
0.000692348
0.000680877
0.000664776
0.000644576
0.000620658
0.000593073
0.000561351
0.000526304
0.000490348
0.000512562
0.000481904
0.000485903
0.000519372
0.000556805
0.000586728
0.000607799
0.000621469
0.000629393
0.000633121
0.000634173
0.000634433
0.00063485
0.000637867
0.000644889
0.000657153
0.000671883
0.000686338
0.000697126
0.00070269
0.000702571
0.000696655
0.000685498
0.000669739
0.000649909
0.000626415
0.000599261
0.000568098
0.000534724
0.000499853
0.000555926
0.000520996
0.000493472
0.000500857
0.000531138
0.000562866
0.000587658
0.000604734
0.000615342
0.000621086
0.000623614
0.000624856
0.000626834
0.000631646
0.000640645
0.000654864
0.000671251
0.000686901
0.000698447
0.000704651
0.000704972
0.000699482
0.000688755
0.000673381
0.000653962
0.000630879
0.000604126
0.00057391
0.000541965
0.000508098
0.000597747
0.000569606
0.000530442
0.000505895
0.000514015
0.000540039
0.000566537
0.000586898
0.000600505
0.000608592
0.000612849
0.000615222
0.000618068
0.000624349
0.000635103
0.000651078
0.000668942
0.000685771
0.000698274
0.000705064
0.000705895
0.000700977
0.000690743
0.000675845
0.000656882
0.000634211
0.000607859
0.000579043
0.000548282
0.000515278
0.000638572
0.000614188
0.000579758
0.000539726
0.00051742
0.000524794
0.000546653
0.000568485
0.000584898
0.000595535
0.000601762
0.000605501
0.000609164
0.00061626
0.000628435
0.000645925
0.000665108
0.000683012
0.000696409
0.000703982
0.000705449
0.000701095
0.00069153
0.00067724
0.000658798
0.000636577
0.00061105
0.000583534
0.000553806
0.000521535
0.000678547
0.000656502
0.000627607
0.000587272
0.00054658
0.00052654
0.000533155
0.000551329
0.000569013
0.000581981
0.000590302
0.000595603
0.000600288
0.000607679
0.000620842
0.000639547
0.00065987
0.000678773
0.000693095
0.000701541
0.000703757
0.000700116
0.000691216
0.000677645
0.000659846
0.000638138
0.00061391
0.000587503
0.000558654
0.000526981
0.000717703
0.000696879
0.000670432
0.000634565
0.000590445
0.000550289
0.000533066
0.000539233
0.000554245
0.000568335
0.000578544
0.000585495
0.000591355
0.000599286
0.000612636
0.00063213
0.000653372
0.000673187
0.000688449
0.000697849
0.000700956
0.000698175
0.000690073
0.000677263
0.000660181
0.000639534
0.000616475
0.000591033
0.000562914
0.000531708
0.000755925
0.000735604
0.000710478
0.000678364
0.000636895
0.000589184
0.00055093
0.000537225
0.000543231
0.000555593
0.000566801
0.000575243
0.000582341
0.000590988
0.000604342
0.000623937
0.000645791
0.000666395
0.000682586
0.000693011
0.000697146
0.000695355
0.000688229
0.000676307
0.000660081
0.000640792
0.000618812
0.000594207
0.000566674
0.00053579
0.000793066
0.000772799
0.000748365
0.000718812
0.000680657
0.000632941
0.000583179
0.000549011
0.000539405
0.000545483
0.000555751
0.000565073
0.000573295
0.000582749
0.000596287
0.000615358
0.000637384
0.000658572
0.000675651
0.000687132
0.000692417
0.000691735
0.000685775
0.000674915
0.000660103
0.000642039
0.000621025
0.000597127
0.000570034
0.000539316
0.000828931
0.000808467
0.000784477
0.000756615
0.000720945
0.000675482
0.000622199
0.000573458
0.000545593
0.000540261
0.000546495
0.000555438
0.000564393
0.000574608
0.000588436
0.00060719
0.000628848
0.000650049
0.000667832
0.000680337
0.000686858
0.000687429
0.000682904
0.000673644
0.000660257
0.000643364
0.000623226
0.000599916
0.000573119
0.000542402
0.000863388
0.000842811
0.000820497
0.00079302
0.000758568
0.000715124
0.000662135
0.000605868
0.000562095
0.000541987
0.00054052
0.00054709
0.000555982
0.000566714
0.00058084
0.000599414
0.0006208
0.000642014
0.000660231
0.0006736
0.000681389
0.000683418
0.000680373
0.000672639
0.00066064
0.000644887
0.000625589
0.000602754
0.000576097
0.000545201
0.000896869
0.000877567
0.000854847
0.000827355
0.0007936
0.000751767
0.000700249
0.000641449
0.000586841
0.000551747
0.000539457
0.000541163
0.000548738
0.000559486
0.000573777
0.000592229
0.000613401
0.000634621
0.000653236
0.000667431
0.000676399
0.000679891
0.000678303
0.000672031
0.000661388
0.000646788
0.000628314
0.000605923
0.000579261
0.000547952
0.000928806
0.000909218
0.000886409
0.000859231
0.000826306
0.000785916
0.000736317
0.000677791
0.000617405
0.000569871
0.00054521
0.000539527
0.000544098
0.000554088
0.000568266
0.000586572
0.000607509
0.000628659
0.000647572
0.000662475
0.000672489
0.000677375
0.000677216
0.000672266
0.000662952
0.000649484
0.000631851
0.00060986
0.000583089
0.000551124
0.00095772
0.00093842
0.000916116
0.000889734
0.000858016
0.000819423
0.000772254
0.000715762
0.000653705
0.000597802
0.000561323
0.000546411
0.000546013
0.000554176
0.00056792
0.00058596
0.000606525
0.000627402
0.000646339
0.000661639
0.000672375
0.000678099
0.00067911
0.000675399
0.000667196
0.000654723
0.000637816
0.000616086
0.00058884
0.000555625
0.00098816
0.000969505
0.00094808
0.000922973
0.000893102
0.00085716
0.000813559
0.000761106
0.000701417
0.000642597
0.000597667
0.000573638
0.000567176
0.000572407
0.000585208
0.000602473
0.000621892
0.000641413
0.000659205
0.000673715
0.000684035
0.000689747
0.000691025
0.000687774
0.00068009
0.000668075
0.000651429
0.000629543
0.000601448
0.000566058
0.00102698
0.00100966
0.000990041
0.000967621
0.000941714
0.000911255
0.000874791
0.000831048
0.000780334
0.000727553
0.000683166
0.000655748
0.000645543
0.000647977
0.000658801
0.000673518
0.000689102
0.000704291
0.000717657
0.000728089
0.000734936
0.000737908
0.000737053
0.000732147
0.00072312
0.000709953
0.000692317
0.000669216
0.000639115
0.000599728
0.0010988
0.00108543
0.00107186
0.00105791
0.001043
0.00102605
0.00100553
0.000980381
0.000950167
0.000917231
0.000888418
0.000870045
0.00086289
0.000864482
0.000871661
0.00088056
0.000888327
0.000894844
0.000899414
0.000901595
0.000901321
0.000898356
0.000892678
0.00088398
0.000871473
0.000855387
0.000836088
0.000811792
0.000781241
0.000741835
0.00133296
0.00133139
0.00133349
0.00133523
0.00133598
0.00133504
0.00133172
0.00132583
0.00131617
0.00130313
0.00129139
0.00128321
0.00127833
0.00127678
0.00127773
0.00128012
0.0012813
0.0012829
0.00128427
0.00128574
0.00128712
0.00128834
0.00128901
0.00128868
0.00128387
0.00127617
0.00126871
0.00125672
0.00124115
0.00122144
0.000163668
0.000171025
0.000169832
0.000165761
0.000160042
0.000153448
0.000146475
0.000139476
0.000132659
0.000126186
0.000120117
0.000114551
0.000109507
0.000105145
0.000101535
9.89236e-05
9.7429e-05
9.72722e-05
9.83476e-05
0.000100106
0.00010158
0.000101878
0.000100318
9.64977e-05
9.03384e-05
8.20942e-05
7.16846e-05
0.00030101
0.000301813
7.19295e-05
0.000604171
0.00068572
0.000666922
0.00062434
0.000576868
0.000530866
0.00048968
0.0004538
0.000422674
0.000395864
0.000372479
0.000352491
0.000335003
0.000321038
0.000310018
0.000303095
0.000299326
0.000300058
0.000302752
0.000306861
0.000311388
0.000314752
0.000312657
0.000302307
0.000284845
0.000260078
0.00023262
0.000242961
0.000323694
0.000306549
0.000938061
0.00108977
0.00110523
0.00106856
0.00101137
0.000948661
0.000888367
0.00083344
0.000784322
0.000741154
0.000702994
0.000670288
0.000641852
0.000619914
0.000603784
0.000594983
0.000591177
0.000592556
0.000592515
0.000590893
0.000588797
0.000585329
0.000574654
0.000552487
0.000517504
0.000470299
0.000416753
0.000367834
0.000373396
0.000401489
0.00111518
0.00131812
0.00138578
0.0013758
0.00133207
0.00127361
0.00121128
0.00115101
0.00109498
0.00104434
0.000998964
0.000960158
0.000927325
0.000903571
0.000888384
0.000883449
0.00088435
0.000887766
0.000884643
0.000875587
0.000863515
0.000849175
0.000826728
0.000790663
0.00073888
0.00067197
0.000595359
0.000512031
0.000459449
0.000450274
0.00119595
0.00141176
0.00152175
0.00155774
0.00154489
0.00150356
0.00145008
0.00139394
0.00133943
0.00128847
0.00124242
0.00120349
0.00117221
0.00115234
0.00114371
0.00114782
0.0011567
0.00116323
0.00115743
0.00114138
0.00111952
0.00109411
0.00106011
0.00101112
0.000945263
0.000862921
0.000768834
0.000662628
0.000571574
0.000520482
0.00122135
0.00144592
0.00158452
0.0016527
0.00166961
0.00165318
0.00161528
0.00156915
0.00152252
0.00147648
0.00143505
0.00140094
0.00137607
0.0013651
0.00136767
0.00138498
0.00140362
0.0014136
0.00140533
0.00138325
0.00135261
0.00131696
0.00127257
0.00121276
0.00113599
0.00104233
0.000935725
0.000814643
0.000699486
0.000613989
0.00120068
0.00141684
0.00157772
0.00167681
0.00172516
0.00173556
0.00172002
0.00169104
0.00165221
0.00161423
0.00158229
0.00155698
0.0015425
0.00154459
0.00156235
0.00159615
0.00162523
0.00163834
0.00162789
0.00160082
0.00156252
0.00151789
0.00146398
0.00139595
0.00131126
0.00120963
0.00109442
0.00096407
0.000833902
0.000722759
0.00111267
0.00132684
0.00151069
0.00164226
0.00172354
0.00176277
0.00177029
0.00175992
0.00173699
0.0017137
0.00168995
0.00167612
0.00167572
0.00169377
0.00173073
0.00178317
0.0018229
0.00183865
0.00182616
0.00179529
0.00175043
0.00169831
0.00163642
0.00156182
0.00147156
0.001365
0.00124465
0.00110854
0.000969118
0.000839059
0.000990764
0.00118756
0.00139226
0.00155881
0.00167409
0.00174316
0.00177456
0.00178449
0.00178064
0.00177269
0.00176391
0.00176483
0.00177941
0.00181627
0.0018754
0.00194751
0.00199835
0.00201634
0.00200194
0.00196836
0.00191823
0.00185907
0.00179145
0.00171184
0.00161782
0.00150874
0.00138599
0.00124846
0.00110406
0.000957422
0.000873115
0.00103176
0.00123731
0.00143203
0.00158387
0.00168292
0.00174064
0.00177281
0.00178911
0.00179862
0.00180738
0.0018253
0.00185741
0.00191554
0.00199831
0.00209041
0.0021531
0.00217344
0.00215757
0.00212179
0.00206788
0.00200381
0.00193133
0.00184781
0.00175143
0.00164154
0.00151973
0.00138066
0.00123368
0.0010721
0.000779237
0.000884916
0.00107002
0.00127585
0.00145491
0.00158717
0.00167562
0.00173125
0.00176918
0.0017978
0.00182472
0.00186115
0.00191227
0.00199276
0.00210118
0.00221326
0.00228668
0.00231055
0.00229504
0.00225753
0.00220241
0.00213606
0.00205957
0.00197189
0.00187398
0.00176553
0.00164266
0.00150345
0.00135654
0.00118279
0.000724037
0.000767906
0.000912628
0.00110871
0.00130198
0.0014603
0.00157733
0.0016633
0.00172499
0.00177434
0.00182038
0.00187546
0.0019469
0.00205246
0.00218574
0.00231722
0.00240165
0.00242868
0.00241304
0.00237691
0.0023219
0.0022542
0.00217535
0.00208648
0.00198796
0.00187826
0.00175514
0.00161727
0.00146947
0.00128959
0.00072175
0.00070033
0.000786233
0.000950596
0.00114072
0.00131431
0.00145539
0.00156857
0.00165758
0.00173095
0.00179668
0.00187112
0.00196337
0.00209493
0.00225305
0.00240323
0.00249843
0.00253205
0.00251818
0.00248227
0.00242824
0.00235971
0.00227962
0.00219153
0.00209191
0.00198141
0.00185853
0.00172258
0.00157219
0.00138805
0.000771234
0.000698446
0.000715175
0.00082266
0.000989661
0.00116327
0.00131996
0.00145506
0.00156814
0.00166586
0.00175569
0.00184986
0.00196349
0.00212174
0.00230417
0.00247218
0.00257763
0.00261892
0.00260958
0.00257497
0.00252266
0.00245335
0.00237507
0.00228719
0.00218749
0.00207628
0.0019541
0.0018216
0.00166568
0.00147643
0.00087664
0.000770384
0.000721063
0.000758433
0.000872031
0.00102523
0.0011834
0.00133172
0.0014635
0.00158269
0.00169578
0.00181353
0.00194892
0.0021339
0.00233979
0.00252487
0.00264352
0.00268985
0.00268782
0.00265599
0.00260613
0.00253909
0.00246219
0.0023741
0.0022748
0.00216405
0.00204416
0.00191159
0.00174968
0.00155471
0.00103997
0.000912559
0.00081774
0.00077689
0.000818117
0.000923626
0.00106155
0.00120931
0.00135202
0.00148795
0.00162159
0.0017621
0.00192145
0.00213212
0.00236039
0.00256185
0.00269235
0.00275281
0.00275511
0.00272623
0.00268134
0.00261716
0.00254062
0.00245316
0.00235491
0.00224642
0.00212991
0.00199217
0.001824
0.00162295
0.00126294
0.0011221
0.000996824
0.000897026
0.00085202
0.000883103
0.000975706
0.00110257
0.0012439
0.00138909
0.00153857
0.00169874
0.00188305
0.0021174
0.0023666
0.0025837
0.00272671
0.0027977
0.00280978
0.00278632
0.00274588
0.00268585
0.00261091
0.00252537
0.00242931
0.0023264
0.0022093
0.00206487
0.00188945
0.00168173
0.00154198
0.00139325
0.00124659
0.00110482
0.000988263
0.000930194
0.000947477
0.0010302
0.00115169
0.00129486
0.00145297
0.00162832
0.00183529
0.00209086
0.00235902
0.00259086
0.00274677
0.00282977
0.00285293
0.00283683
0.00280107
0.00274567
0.00267363
0.00259185
0.00250335
0.0024042
0.00228177
0.00213037
0.00194697
0.00173192
0.00186668
0.00171299
0.00155053
0.00137881
0.00120944
0.00107131
0.000999983
0.00100997
0.00109043
0.00121551
0.00137176
0.00155656
0.00178125
0.00205402
0.00233814
0.00258337
0.00275221
0.00284849
0.0028843
0.00287805
0.00284925
0.00279809
0.00273265
0.00266014
0.00257816
0.0024775
0.00234891
0.00218984
0.00199774
0.0017747
0.00221512
0.00206055
0.00188786
0.00169513
0.00148841
0.00128888
0.0011341
0.00105912
0.00107226
0.00116227
0.00130365
0.00148916
0.00172369
0.002008
0.00230346
0.00255986
0.00274085
0.00285153
0.00290139
0.0029087
0.00288838
0.00284908
0.00279665
0.00273362
0.002654
0.00254652
0.00241124
0.00224418
0.00204294
0.00181132
0.00256595
0.00241329
0.00223507
0.00202851
0.00179645
0.00155357
0.00133247
0.00117554
0.00111151
0.00114201
0.00125666
0.00142969
0.00166383
0.00195115
0.00224978
0.00251476
0.00270488
0.00283062
0.00289856
0.00291852
0.00291271
0.00288574
0.00284349
0.00278777
0.00271102
0.00260436
0.00246571
0.00229244
0.00208287
0.00184278
0.00289548
0.0027458
0.00256569
0.00235155
0.00210424
0.00183363
0.00156588
0.00134206
0.00120221
0.00116591
0.0012276
0.00138094
0.00160467
0.0018786
0.00216623
0.00242876
0.00263373
0.00277202
0.00285455
0.00289069
0.00290028
0.00289006
0.00286173
0.00281598
0.00274525
0.00264306
0.00250292
0.00232899
0.00211537
0.0018689
0.00317385
0.00302795
0.00284977
0.00263409
0.0023808
0.00209618
0.00180021
0.00152894
0.00132512
0.00122153
0.00122441
0.00133315
0.00152341
0.00176858
0.00203055
0.00227643
0.00248082
0.00263203
0.00272984
0.00278625
0.00281675
0.00282927
0.00282176
0.00279437
0.00274093
0.00265001
0.00252022
0.00234566
0.00213274
0.00188666
0.00336537
0.00322558
0.00305383
0.00284363
0.00259343
0.00230679
0.00199868
0.00169913
0.00144814
0.00128402
0.00122489
0.00126691
0.00140511
0.00160142
0.00181643
0.00203241
0.0022287
0.00238151
0.0024929
0.0025729
0.00262886
0.00267041
0.00269092
0.00269078
0.00266485
0.00260206
0.00249137
0.00233612
0.00213027
0.0018864
0.00343243
0.00330432
0.00314584
0.0029492
0.00271129
0.00243379
0.00212839
0.00181958
0.00154189
0.00133169
0.00121207
0.00118412
0.00124627
0.00137943
0.00154447
0.00172502
0.00189727
0.00204224
0.00216137
0.00225735
0.00233636
0.00240313
0.00245098
0.00248021
0.0024864
0.00245995
0.00238797
0.00226071
0.00208552
0.0018667
0.00335677
0.00324938
0.00311335
0.00293984
0.00272482
0.00247009
0.00218676
0.0018953
0.00162343
0.00140065
0.00124904
0.00117389
0.00117447
0.0012468
0.00136822
0.00150782
0.00164034
0.00176099
0.00186574
0.00195701
0.0020374
0.00210563
0.00216064
0.00220178
0.00222566
0.00222469
0.00218755
0.00210265
0.00195783
0.00177619
0.00316699
0.00309334
0.00299314
0.0028579
0.00268366
0.00247409
0.00224123
0.00200242
0.00177795
0.00158799
0.00145013
0.00136712
0.00134436
0.00138053
0.00146155
0.00155723
0.00164525
0.00172619
0.00179987
0.00186414
0.00191733
0.00196121
0.00199541
0.0020192
0.00203039
0.00202408
0.00199121
0.00192138
0.00180183
0.00162669
0.00299239
0.00296012
0.00290261
0.00281487
0.00269407
0.0025456
0.00238095
0.0022129
0.00205417
0.00191535
0.00180779
0.00173707
0.0017119
0.00172827
0.00177692
0.00183659
0.00188956
0.00194017
0.00198712
0.00202542
0.0020548
0.00207716
0.00209131
0.00209595
0.00208901
0.00206745
0.00202405
0.00194806
0.00182739
0.00164837
0.00286567
0.0028547
0.00284167
0.00280698
0.00274721
0.00266413
0.00256278
0.00245603
0.00235076
0.00225327
0.00217219
0.00211564
0.00208826
0.00208847
0.00211006
0.00214245
0.00217217
0.00220506
0.0022368
0.00226524
0.00228879
0.00231009
0.00232599
0.00233553
0.00233634
0.00232647
0.00230025
0.00224777
0.00216263
0.00203335
0.00280571
0.0028106
0.00281488
0.002802
0.00277296
0.00273101
0.00267773
0.00261566
0.00255031
0.00248636
0.00243159
0.00238976
0.00236213
0.0023504
0.0023526
0.002367
0.00238334
0.00240478
0.00242921
0.00245576
0.00248357
0.00250896
0.0025334
0.00255531
0.00257248
0.0025856
0.0025905
0.00257903
0.00255436
0.00251184
0.000189369
0.000196583
0.000193741
0.00018868
0.000182069
0.000174548
0.000166652
0.00015876
0.000151093
0.000143836
0.000137051
0.000130852
0.000125236
0.000120409
0.000116445
0.000113673
0.000112285
0.000112921
0.000115742
0.000119658
0.000122762
0.000123704
0.000121638
0.000116104
0.000106969
9.41384e-05
7.80504e-05
0.000317932
0.000313439
7.57184e-05
0.000781677
0.000902888
0.000910868
0.000866321
0.000806313
0.000745871
0.000691392
0.000643604
0.000601813
0.000565347
0.000532696
0.000503913
0.000477147
0.0004545
0.000434444
0.000419352
0.000408261
0.000407497
0.000414339
0.000427886
0.000443183
0.000455412
0.000454121
0.000433254
0.000394829
0.000344111
0.00029027
0.00027164
0.00033632
0.000325472
0.00123476
0.00145472
0.00151893
0.0014966
0.00143466
0.00135878
0.00128292
0.00121205
0.00114713
0.00108857
0.00103507
0.000987432
0.000943288
0.000906548
0.000875337
0.000852155
0.000834427
0.000828787
0.000827552
0.000832843
0.000841872
0.00085009
0.000835652
0.00079353
0.000724279
0.000629767
0.00052452
0.000428419
0.000408234
0.000461194
0.00153696
0.0018118
0.00191581
0.00192562
0.00188486
0.00181776
0.00174263
0.00166727
0.00159491
0.00152757
0.00146536
0.00141025
0.00136063
0.00132116
0.00129011
0.00126888
0.0012514
0.00124028
0.00122729
0.00121906
0.0012149
0.00121145
0.00118567
0.00112533
0.00102925
0.00090188
0.000757592
0.000609701
0.000517498
0.000526809
0.00170614
0.00197246
0.00212342
0.00218925
0.00218668
0.0021398
0.00207742
0.00200894
0.00193961
0.00187309
0.00181153
0.00175821
0.00171239
0.0016797
0.00165799
0.00164593
0.00163168
0.00161336
0.00158703
0.00156383
0.0015469
0.00153198
0.00149418
0.00142031
0.00130677
0.00115733
0.00098601
0.000803111
0.000658156
0.000613337
0.00181153
0.00206714
0.00224022
0.00233596
0.00236526
0.00235122
0.00230981
0.00225535
0.00219623
0.00213744
0.00208384
0.00203954
0.00200548
0.00198772
0.00198228
0.00198402
0.00197321
0.0019453
0.00190461
0.0018673
0.00183817
0.0018113
0.00176424
0.00168177
0.00155828
0.0013961
0.00120766
0.0010016
0.000820234
0.000727946
0.0018746
0.00209985
0.00227627
0.00239507
0.00245708
0.00247378
0.00245934
0.00242394
0.00237852
0.00233226
0.00229331
0.00226411
0.00224858
0.00225256
0.00226902
0.00228765
0.00227815
0.00223869
0.00218371
0.00213341
0.00209307
0.0020551
0.00200082
0.00191346
0.00178572
0.00161821
0.00142117
0.00120256
0.00099598
0.000864241
0.00185968
0.00205179
0.00223346
0.00237748
0.0024725
0.00252178
0.00253566
0.00252548
0.00250093
0.00247486
0.00244928
0.00244029
0.00244867
0.00248003
0.00252382
0.00256054
0.00254946
0.0024972
0.00242896
0.00236778
0.00231666
0.00226916
0.0022091
0.00211937
0.00199136
0.00182421
0.00162725
0.00140113
0.00117937
0.00101232
0.00175235
0.00192554
0.0021192
0.00229378
0.00242312
0.00250668
0.0025512
0.00256803
0.0025683
0.00256345
0.00256098
0.00257518
0.00261168
0.00267538
0.00275123
0.00280518
0.00279
0.00272486
0.00264517
0.00257533
0.00251468
0.00245892
0.00239541
0.00230429
0.0021781
0.00201671
0.0018194
0.00159104
0.00136124
0.00116663
0.00161925
0.00176362
0.00195989
0.00215557
0.00231815
0.00243798
0.00251492
0.00256113
0.00258811
0.00260837
0.002633
0.0026762
0.00274272
0.00284436
0.0029534
0.00302308
0.00300243
0.0029257
0.00283722
0.00276038
0.00269164
0.00263134
0.00256313
0.00247232
0.00235013
0.002192
0.00199707
0.00177133
0.00153854
0.00132278
0.00148426
0.00158395
0.00176892
0.00197909
0.00217068
0.00232349
0.00243411
0.00251193
0.00256804
0.00261654
0.00267078
0.00274565
0.00284669
0.00299081
0.00313197
0.00321486
0.00318984
0.00310359
0.00300968
0.0029272
0.00285331
0.00278811
0.00271558
0.00262496
0.00250652
0.00235141
0.00216167
0.00194214
0.00171005
0.00148027
0.00136812
0.00140739
0.00156292
0.00177576
0.00198968
0.00217305
0.00231679
0.00242673
0.00251382
0.00259267
0.00267876
0.002788
0.00292801
0.00311729
0.00328812
0.00338203
0.00335461
0.00326241
0.00316644
0.00308037
0.00300377
0.00293302
0.00285605
0.00276674
0.00264968
0.00249848
0.00231495
0.0021032
0.00187222
0.00163646
0.00128828
0.00125685
0.00136503
0.00156249
0.00178715
0.00199531
0.00217006
0.00231214
0.00243122
0.00254183
0.00266139
0.00280648
0.00298964
0.00321972
0.00342204
0.0035244
0.00349944
0.00340601
0.00331106
0.00322311
0.00314368
0.00306848
0.00298819
0.00289776
0.00278218
0.00263591
0.00245969
0.00225467
0.00202417
0.00178337
0.00128117
0.00117075
0.00121073
0.00136645
0.00158196
0.00180319
0.00200297
0.00217506
0.0023259
0.00246931
0.00262294
0.00280455
0.00303466
0.00330694
0.00353459
0.00364499
0.00362594
0.00353545
0.00344238
0.0033572
0.00327532
0.00319709
0.00311588
0.00302217
0.00290742
0.00276714
0.00259782
0.00239541
0.00216526
0.00192024
0.00134509
0.00118828
0.00114453
0.00122863
0.00140478
0.00161733
0.00182921
0.00202468
0.00220457
0.0023802
0.00256851
0.00278586
0.00306438
0.00337544
0.00362556
0.00374383
0.00373117
0.00365007
0.00356634
0.00348446
0.00340131
0.00332165
0.00323851
0.00314268
0.00302933
0.00289545
0.00272877
0.00252664
0.00229556
0.00204641
0.00149977
0.00131528
0.00120424
0.00119395
0.00130155
0.00146932
0.00166983
0.00187469
0.00207621
0.00228053
0.00250199
0.00275598
0.00307905
0.00342418
0.00369041
0.00382097
0.00382238
0.0037568
0.0036817
0.00360452
0.00352323
0.00344355
0.00336015
0.00326347
0.00315558
0.00302189
0.00285295
0.00264903
0.00241538
0.00216158
0.00175996
0.00156116
0.00140391
0.00131011
0.00130202
0.00140008
0.00155468
0.00174467
0.001953
0.00217771
0.00242702
0.00272013
0.00307721
0.00345092
0.00373307
0.00387529
0.00389684
0.00384993
0.00378669
0.0037165
0.00363932
0.00356353
0.00348583
0.00339574
0.00328413
0.00314449
0.00297104
0.00276316
0.00252515
0.00226582
0.00210947
0.00190639
0.00172059
0.00156371
0.00146012
0.00144043
0.00151464
0.00165907
0.00185024
0.00208066
0.00235051
0.00267814
0.00306096
0.0034521
0.00374733
0.00390598
0.00394916
0.00392484
0.00387673
0.00381679
0.00374955
0.00368502
0.00361537
0.0035253
0.00340711
0.00326147
0.00308232
0.00286899
0.00262517
0.00235936
0.00251723
0.00231404
0.0021103
0.00191058
0.00173237
0.00160803
0.00157059
0.00163173
0.00178332
0.00199958
0.00227971
0.00262708
0.00302373
0.003419
0.00372603
0.00390214
0.00396938
0.00397042
0.0039423
0.00389549
0.00383831
0.00377972
0.00371434
0.00363092
0.00351537
0.00336737
0.00318395
0.00296528
0.00271516
0.00244238
0.00294301
0.0027403
0.00252477
0.00229696
0.00206771
0.00186268
0.00172206
0.00168141
0.00175253
0.00194185
0.00221216
0.00256153
0.00296414
0.00335838
0.00365536
0.00384895
0.00394525
0.00397373
0.00396477
0.00393498
0.00389046
0.00383984
0.00377999
0.00370096
0.00359558
0.00345186
0.0032694
0.00304845
0.00279349
0.00251438
0.00334602
0.00314329
0.00292014
0.00267486
0.00241342
0.00215388
0.00193224
0.00179459
0.00177371
0.00188663
0.00212705
0.00245826
0.00283267
0.00320478
0.00351169
0.00372155
0.00384704
0.00390304
0.00391526
0.00390704
0.00388123
0.00384558
0.00379825
0.00372954
0.00363091
0.00349487
0.00332505
0.00311002
0.00285539
0.00257303
0.00368876
0.0034865
0.00325962
0.00300505
0.0027255
0.0024329
0.00215569
0.0019385
0.00182797
0.00185014
0.00202877
0.00231178
0.0026505
0.00298857
0.00327875
0.00349763
0.00365124
0.00373023
0.00376875
0.00378621
0.00378626
0.00377312
0.00374644
0.00369823
0.00361309
0.0034934
0.00332781
0.00313213
0.00288904
0.0026117
0.00393865
0.00373961
0.00351387
0.00325731
0.00297057
0.00266119
0.00235052
0.00207622
0.00188586
0.00181721
0.00189532
0.00210889
0.0023947
0.00268927
0.00295704
0.00317924
0.00335183
0.00345124
0.00351562
0.00356164
0.00359028
0.00360406
0.00360345
0.00358186
0.00352501
0.00342367
0.00328245
0.00309037
0.002867
0.00261127
0.00407069
0.00388078
0.00366316
0.00341286
0.00312906
0.00281668
0.00249202
0.00218545
0.00193862
0.00179214
0.00176892
0.00188369
0.00210282
0.00235994
0.00260169
0.0028208
0.00299193
0.00310651
0.00318904
0.00325904
0.00330974
0.00334597
0.00336827
0.00337155
0.00334474
0.00327452
0.00315638
0.00299695
0.00279363
0.00255608
0.00407492
0.00390402
0.00370533
0.00347288
0.00320494
0.00290568
0.00258928
0.00228114
0.00201565
0.00182754
0.00173673
0.00176619
0.00190821
0.00211942
0.00233326
0.00253214
0.00268227
0.00279508
0.00288246
0.00295852
0.00301495
0.00305779
0.00308788
0.00310157
0.0030908
0.00304458
0.00295474
0.00281232
0.00263723
0.0024391
0.00397137
0.00383375
0.00367007
0.00347211
0.00323794
0.00297292
0.00269164
0.00241626
0.00217398
0.00198999
0.00187441
0.00185718
0.00193683
0.00208709
0.0022636
0.00242086
0.00253821
0.00262968
0.00270723
0.00276904
0.00281392
0.00284588
0.00286567