/*--------------------------------*- C++ -*----------------------------------*\
| =========                 |                                                 |
| \\      /  F ield         | OpenFOAM: The Open Source CFD Toolbox           |
|  \\    /   O peration     | Version:  5.0                                   |
|   \\  /    A nd           | Web:      www.OpenFOAM.org                      |
|    \\/     M anipulation  |                                                 |
\*---------------------------------------------------------------------------*/
FoamFile
{
    version     2.0;
    format      ascii;
    class       volScalarField;
    location    "1950/air";
    object      alphat;
}
// * * * * * * * * * * * * * * * * * * * * * * * * * * * * * * * * * * * * * //

dimensions      [1 -1 -1 0 0 0 0];

internalField   nonuniform List<scalar> 
243000
(
0.000170084
0.000172843
0.000169274
0.000163919
0.000157401
0.000150316
0.000142996
0.000135694
0.000128589
0.000121848
0.00011557
0.000109821
0.000104573
9.9858e-05
9.56639e-05
9.20609e-05
8.90954e-05
8.69254e-05
8.70249e-05
8.73609e-05
8.76532e-05
8.56835e-05
0.000387539
8.53551e-05
0.000368578
0.000355339
0.00034756
0.000314861
0.000333604
8.98918e-05
0.000741441
0.000784382
0.000793293
0.000791273
0.000782383
0.000768808
0.000751978
0.000732939
0.000712355
0.000690846
0.000668795
0.000646551
0.000624134
0.000602086
0.000580757
0.000560693
0.00054221
0.000526496
0.000510254
0.000501259
0.000493069
0.000488539
0.000476738
0.000453761
0.000436838
0.0004099
0.000375855
0.000339651
0.000331519
0.000374194
0.000799954
0.000843406
0.000855258
0.000854275
0.000845515
0.000831559
0.000814023
0.000794018
0.000772286
0.00074954
0.000726188
0.000702636
0.000678993
0.000655916
0.000633831
0.000613331
0.000594688
0.000579055
0.000566415
0.000556808
0.000548119
0.000538357
0.000524975
0.00050597
0.000481941
0.000451742
0.000415192
0.000374312
0.000349824
0.00038103
0.000826431
0.000871439
0.000886719
0.000888793
0.000882313
0.000870091
0.000853791
0.00083458
0.000813269
0.000790633
0.000767177
0.000743431
0.000719589
0.000696402
0.000674388
0.000654196
0.000636069
0.000621064
0.000608992
0.000599191
0.000589943
0.000579314
0.000565205
0.000545956
0.000520917
0.000489556
0.000451358
0.000408825
0.000377093
0.000382335
0.000831452
0.000876512
0.000897979
0.00090461
0.000901672
0.000892352
0.000878346
0.000860918
0.000840938
0.000819273
0.00079651
0.000773297
0.000749932
0.000727268
0.000705866
0.000686456
0.000669235
0.000655119
0.000643595
0.000633756
0.000623991
0.000612658
0.000597938
0.000578329
0.000553026
0.000521465
0.000483101
0.000440332
0.000404613
0.000388951
0.000821966
0.000867788
0.000894729
0.000906921
0.000908521
0.000902806
0.000891756
0.000876726
0.000858674
0.000838572
0.000817048
0.000794872
0.00077245
0.000750749
0.000730299
0.000711982
0.000695896
0.000682791
0.000671866
0.000662057
0.00065186
0.00063988
0.000624607
0.000604729
0.000579422
0.000548098
0.000510229
0.000467813
0.000430085
0.000402536
0.000800548
0.000849495
0.000881879
0.000899454
0.000905977
0.000904488
0.000896673
0.000884344
0.00086869
0.000850584
0.000830702
0.000809934
0.000788784
0.000768342
0.000749086
0.000732053
0.000717235
0.000705175
0.000694861
0.000685134
0.000674596
0.000662067
0.000646323
0.000626258
0.000601093
0.000570197
0.000533059
0.000491342
0.00045266
0.000419449
0.000769112
0.000823142
0.000861098
0.000884317
0.000896053
0.000899044
0.000895128
0.00088594
0.00087262
0.000856732
0.000838818
0.000819747
0.00080012
0.000781106
0.00076323
0.000747592
0.00073411
0.000723087
0.000713375
0.000703776
0.000692995
0.00068004
0.000663923
0.000643749
0.000618808
0.000588428
0.000552155
0.000511532
0.000472531
0.000436257
0.000730515
0.000790388
0.000834167
0.000863123
0.000880251
0.000887866
0.000888032
0.00088231
0.000872127
0.00085853
0.000842468
0.000825271
0.00080733
0.00078988
0.00077349
0.000759305
0.000747171
0.000737151
0.000728029
0.000718604
0.000707683
0.000694427
0.000678053
0.000657847
0.000633184
0.000603409
0.000567868
0.000528438
0.00048946
0.000452182
0.000692499
0.000755497
0.00080354
0.00083749
0.00085984
0.000872163
0.000876522
0.000874507
0.000867451
0.000856544
0.000842872
0.000827339
0.000811127
0.000795318
0.000780468
0.000767744
0.000756928
0.000747868
0.000739317
0.000730109
0.000719146
0.000705722
0.000689213
0.000669061
0.000644755
0.000615489
0.000580501
0.000542534
0.000503907
0.000465586
0.00065716
0.00071981
0.000771976
0.000810253
0.000836384
0.000853032
0.00086152
0.000863276
0.0008595
0.000851386
0.000840033
0.000826676
0.000812186
0.000797953
0.000784651
0.000773356
0.000763794
0.000755645
0.000747647
0.000738694
0.00072779
0.000714323
0.000697808
0.000677823
0.000653867
0.000624982
0.000590524
0.000554192
0.000516197
0.000477379
0.00062901
0.00068399
0.000738933
0.000781786
0.00081221
0.000832253
0.000844015
0.000849303
0.000848848
0.000843607
0.000834718
0.000823436
0.000810804
0.000798275
0.000786446
0.000776512
0.000768114
0.000760828
0.000753359
0.0007447
0.00073395
0.000720564
0.000704201
0.000684451
0.000660748
0.000632227
0.000598944
0.000563989
0.000526667
0.000487693
0.000614498
0.000650827
0.000704572
0.000751544
0.000786688
0.000810714
0.000825668
0.000833479
0.000836049
0.000833674
0.000827292
0.000818172
0.000807403
0.000796521
0.000786169
0.000777523
0.000770208
0.000763695
0.000756748
0.000748422
0.000737924
0.000724781
0.000708616
0.000689073
0.000665635
0.000637488
0.000605875
0.000572203
0.000535556
0.000496548
0.000619766
0.000626827
0.000670769
0.000719522
0.000759353
0.000787906
0.000806571
0.000817298
0.000822034
0.000822108
0.000818145
0.000811199
0.0008023
0.000793036
0.000784107
0.000776664
0.00077029
0.000764514
0.000758092
0.00075017
0.000739968
0.000727049
0.000711115
0.000691857
0.000668725
0.000641152
0.000611336
0.000578957
0.000543012
0.000504145
0.000646305
0.000621405
0.000642968
0.000687142
0.000730175
0.000763445
0.000786338
0.000800426
0.0008077
0.000809719
0.000807729
0.000802826
0.000795774
0.000788079
0.000780505
0.000774176
0.000768681
0.00076355
0.000757569
0.000749942
0.000740032
0.000727422
0.0007118
0.000692894
0.000670188
0.00064403
0.000615653
0.000584436
0.000549168
0.000510593
0.000688294
0.000643133
0.000631408
0.000658997
0.00070033
0.000737322
0.000764675
0.000782579
0.000792792
0.000797033
0.000796757
0.000793437
0.000788082
0.000781887
0.000775587
0.000770282
0.000765581
0.00076104
0.000755525
0.000748298
0.000738685
0.000726373
0.000711043
0.000692458
0.000670372
0.000645904
0.000618896
0.000588753
0.000554121
0.000515998
0.000738746
0.000687961
0.00064765
0.000644536
0.000673688
0.000710538
0.000741623
0.000763562
0.000777098
0.000783883
0.000785544
0.000783603
0.00077954
0.000774695
0.000769566
0.000765195
0.000761212
0.000757212
0.000752147
0.000745333
0.000736141
0.000724158
0.000709169
0.000690987
0.00067011
0.000646996
0.000621196
0.000592014
0.00055796
0.000520355
0.000789874
0.000742265
0.000690143
0.000655333
0.00065824
0.000686297
0.000718067
0.000743469
0.000760501
0.000770121
0.000773946
0.000773618
0.000770636
0.000766778
0.000762658
0.00075912
0.00075579
0.000752287
0.000747659
0.000741267
0.000732522
0.000720989
0.000706411
0.000689072
0.000669404
0.000647427
0.000622672
0.000594327
0.000560775
0.000523846
0.000838236
0.000796101
0.000745013
0.000692924
0.000664119
0.000671016
0.000696555
0.000723049
0.000743117
0.000755686
0.000761879
0.000763346
0.00076165
0.000758522
0.000755124
0.000752278
0.000749523
0.000746483
0.000742287
0.000736328
0.000728056
0.000717041
0.000703172
0.000686933
0.000668333
0.000647306
0.000623441
0.000595802
0.000562657
0.000526485
0.000884836
0.00084758
0.000801182
0.000746012
0.00069531
0.000672838
0.000681992
0.00070424
0.000725553
0.000740698
0.000749318
0.000752712
0.000752479
0.000750276
0.000747377
0.000744945
0.000742644
0.000740023
0.000736255
0.000730744
0.000722976
0.000712684
0.000699857
0.000684625
0.000666978
0.000646791
0.000623628
0.000596559
0.000563712
0.000528241
0.000929448
0.000895084
0.000853637
0.000801976
0.000743508
0.000696525
0.000680445
0.000690565
0.000709227
0.000725634
0.000736383
0.000741726
0.000743052
0.00074195
0.000739726
0.000737553
0.000735449
0.000733163
0.000729802
0.000724765
0.000717747
0.000708385
0.000696527
0.000682226
0.000665443
0.000646002
0.000623408
0.000596731
0.000564057
0.000529505
0.000971908
0.000940451
0.000902444
0.000855054
0.000797186
0.000737333
0.00069652
0.000686487
0.000696611
0.000711524
0.000723449
0.000730506
0.000733388
0.000733512
0.00073212
0.000730381
0.000728561
0.000726495
0.000723522
0.000719056
0.000712741
0.000704224
0.000693284
0.000679869
0.00066389
0.00064511
0.000622981
0.000596535
0.000563873
0.000530441
0.00101229
0.000982707
0.00094726
0.000903477
0.000848993
0.000785864
0.000728245
0.000695688
0.000690805
0.000700074
0.000711282
0.000719385
0.000723651
0.000725012
0.000724585
0.000723443
0.000722013
0.00072024
0.000717653
0.000713722
0.000708077
0.000700356
0.000690305
0.000677754
0.000662553
0.000644385
0.000622612
0.000596237
0.000563418
0.000531427
0.00105048
0.00102202
0.000988295
0.000947231
0.000896313
0.000834643
0.000769252
0.000718125
0.000694708
0.000693536
0.000701212
0.000709077
0.000714261
0.000716754
0.000717358
0.000716961
0.000716039
0.000714647
0.000712467
0.000709057
0.000704047
0.000697074
0.000687887
0.000676179
0.000661724
0.000644115
0.000622626
0.000596156
0.000563024
0.000534419
0.00108484
0.00105755
0.00102543
0.000986636
0.000938939
0.000880472
0.000813656
0.000750975
0.000709798
0.000694635
0.00069538
0.000701113
0.000706373
0.000709731
0.000711375
0.000711875
0.000711607
0.000710703
0.000708965
0.000706041
0.000701587
0.000695269
0.000686746
0.000675737
0.000661956
0.000644932
0.000623725
0.000596998
0.000563294
0.00054086
0.00111699
0.00109081
0.00106016
0.00102346
0.000978781
0.000924086
0.000859423
0.000791986
0.000737449
0.000707333
0.000698111
0.000699351
0.000703571
0.000707462
0.000710234
0.000711859
0.000712462
0.000712158
0.000710832
0.000708231
0.000704089
0.00069814
0.000690089
0.000679599
0.000666282
0.000649525
0.000628201
0.000600618
0.00056577
0.000551633
0.00115029
0.00112562
0.0010968
0.0010625
0.00102115
0.000970983
0.000911051
0.000844843
0.000783745
0.000741359
0.000721187
0.000716212
0.000718354
0.000722711
0.000727044
0.000730249
0.000731944
0.000732188
0.000730891
0.000727945
0.000723263
0.000716749
0.000708227
0.000697363
0.000683652
0.000666328
0.000643957
0.000614289
0.000576432
0.000571377
0.00119326
0.00117104
0.00114515
0.0011148
0.00107904
0.00103661
0.000986339
0.000929333
0.000872329
0.000827011
0.000800832
0.000791559
0.000792473
0.000798172
0.000804758
0.000809718
0.00081202
0.000811779
0.000808934
0.000803664
0.000796224
0.000786859
0.000775644
0.000762235
0.000745815
0.000725582
0.000699891
0.000665424
0.000620316
0.000621087
0.00127793
0.00126097
0.00124276
0.00122313
0.00120149
0.00117686
0.00114776
0.00111403
0.00107792
0.00104718
0.00102861
0.00102258
0.00102508
0.00103258
0.00104021
0.00104507
0.00104585
0.00104319
0.00103728
0.00102843
0.00101726
0.00100431
0.000989959
0.000973705
0.000953264
0.000929259
0.000900612
0.000863056
0.000814257
0.000806591
0.00155727
0.00155304
0.00155433
0.00155538
0.00155506
0.00155271
0.00154737
0.00153915
0.00152573
0.00151287
0.00150393
0.00149923
0.00149805
0.00150113
0.00150431
0.00150633
0.00150545
0.00150428
0.00150248
0.00150064
0.00149864
0.00149696
0.00149548
0.00149351
0.00148368
0.00147257
0.00145966
0.00144064
0.00141404
0.00139896
0.000206297
0.000213317
0.000210399
0.000204367
0.00019657
0.000187839
0.000178738
0.000169671
0.000160872
0.000152519
0.000144684
0.000137463
0.000130859
0.000125003
0.000119913
0.000115738
0.000112541
0.000110581
0.000109875
0.000110192
0.000110584
0.000110127
0.000107824
0.000103049
9.57123e-05
8.50584e-05
0.000357074
0.000336497
8.63082e-05
9.31342e-05
0.000800023
0.000902569
0.000873998
0.000813626
0.000746196
0.000682503
0.000625914
0.000576318
0.000532751
0.000494866
0.000461636
0.0004328
0.000406974
0.000384639
0.000364873
0.000347862
0.000331984
0.000319295
0.000309883
0.000304985
0.000304185
0.000305214
0.000302849
0.000292783
0.000274206
0.000248023
0.000284341
0.000346156
0.000365331
0.000382566
0.0012715
0.00147044
0.00148165
0.00142019
0.00133241
0.00123943
0.00115128
0.00107074
0.000998011
0.00093349
0.000875997
0.000825511
0.000779879
0.000740168
0.000705214
0.00067445
0.000644306
0.000617773
0.000593619
0.000574514
0.000562182
0.000554448
0.000543848
0.000523515
0.000488606
0.000440493
0.000404216
0.000394404
0.000432916
0.000467325
0.00157904
0.00184635
0.00189729
0.00186108
0.00178207
0.00168623
0.00158802
0.00149378
0.00140567
0.00132543
0.00125249
0.00118756
0.00112871
0.00107715
0.00103229
0.00099268
0.000953185
0.000916251
0.000879098
0.000845183
0.000818351
0.000798012
0.000775987
0.000742855
0.00069309
0.000625928
0.00055191
0.000485827
0.000472951
0.000488724
0.00173694
0.0020197
0.0021364
0.00215064
0.00209837
0.00201615
0.00192227
0.00182753
0.001735
0.0016486
0.00156841
0.0014962
0.0014303
0.00137262
0.00132323
0.00127981
0.00123521
0.0011915
0.0011442
0.00109764
0.00105717
0.00102382
0.000989494
0.000944728
0.000883187
0.000802543
0.000707219
0.000605484
0.000545112
0.000520851
0.00182486
0.00210987
0.00226794
0.00232106
0.00230489
0.00224566
0.00216437
0.00207935
0.00198997
0.00190543
0.00182468
0.00175107
0.00168371
0.00162493
0.00157525
0.00153166
0.00148557
0.00143779
0.00138291
0.00132614
0.00127397
0.00122867
0.00118311
0.00112865
0.00105818
0.0009683
0.000861079
0.000739811
0.000645805
0.00059097
0.00185814
0.0021379
0.00231552
0.00240258
0.00242158
0.00239422
0.0023379
0.00226073
0.00217791
0.00210312
0.00202692
0.00195682
0.00189262
0.00183709
0.00179013
0.00174985
0.00170457
0.0016546
0.00159434
0.00152964
0.00146806
0.00141186
0.00135713
0.00129509
0.00121832
0.00112264
0.00100857
0.000877601
0.00076163
0.00067863
0.00184343
0.00209742
0.0022909
0.00241039
0.00246557
0.00246955
0.00243943
0.00238414
0.00232184
0.00225176
0.00218096
0.00211904
0.00206136
0.00201227
0.0019708
0.00193594
0.00189356
0.00184297
0.00177924
0.00170877
0.00163952
0.00157595
0.00151342
0.00144515
0.00136411
0.00126523
0.00114811
0.00101236
0.000882065
0.000772605
0.00174694
0.00198959
0.00220223
0.00235509
0.00244807
0.00248487
0.00248381
0.00245604
0.00241242
0.00235761
0.00230136
0.00224398
0.00219448
0.00215386
0.00212021
0.0020924
0.00205432
0.00200447
0.00193912
0.00186549
0.00179194
0.0017224
0.00165437
0.00158112
0.00149682
0.00139647
0.0012794
0.00114139
0.00100092
0.000867101
0.00159457
0.00182161
0.0020569
0.00224457
0.00237801
0.00245007
0.00248189
0.00248279
0.00246245
0.0024261
0.0023834
0.00233814
0.00229678
0.00226528
0.0022412
0.0022214
0.00218858
0.00214084
0.00207529
0.00200004
0.00192297
0.00184997
0.00177837
0.00170355
0.0016177
0.00151818
0.0014015
0.00126332
0.00111521
0.000958484
0.00144579
0.00162688
0.0018602
0.00208387
0.0022631
0.00237238
0.00244041
0.0024716
0.00247632
0.00246073
0.00243396
0.00240229
0.00237156
0.00235119
0.00233649
0.00232484
0.00229845
0.00225362
0.00218934
0.00211413
0.00203596
0.0019602
0.00188732
0.00181282
0.00172887
0.00162833
0.0015146
0.00137444
0.00121938
0.00104466
0.00132388
0.00143832
0.00164428
0.00188121
0.00209581
0.00225544
0.00236463
0.00242781
0.00245847
0.00246509
0.00245645
0.00244009
0.00242238
0.00241245
0.0024082
0.00240488
0.00238545
0.00234434
0.0022826
0.00220904
0.00213221
0.00205682
0.00198445
0.00190928
0.00182542
0.00172599
0.00161491
0.00147356
0.00131104
0.00112175
0.0012406
0.00128153
0.00143825
0.00166315
0.00189628
0.00209602
0.00224972
0.00235527
0.00241273
0.00244279
0.00245387
0.00245436
0.0024508
0.0024528
0.00245855
0.00246373
0.00245093
0.00241436
0.00235651
0.00228636
0.00221123
0.0021371
0.00206427
0.00199035
0.00190791
0.00181308
0.0017014
0.00155839
0.00138946
0.00118794
0.0012255
0.00117868
0.00126891
0.0014556
0.00168559
0.00191044
0.00210046
0.00224457
0.00234105
0.00239731
0.00242897
0.00244753
0.0024591
0.00247362
0.00248965
0.00250306
0.0024973
0.00246552
0.00241236
0.00234553
0.00227027
0.00219577
0.00212449
0.00205534
0.00197657
0.00188915
0.00177487
0.00162921
0.00145424
0.00124255
0.00126741
0.00115561
0.00116594
0.00128845
0.00148738
0.00171655
0.00193019
0.00210574
0.00223747
0.0023285
0.00238503
0.00242167
0.00244924
0.00247679
0.00250285
0.00252441
0.00252615
0.00250013
0.00245222
0.00239049
0.00232012
0.00224545
0.00217395
0.00210516
0.00203411
0.00194915
0.0018341
0.00168597
0.00150543
0.00128524
0.0013752
0.0012107
0.00113781
0.00118858
0.00132981
0.00153496
0.00175389
0.0019503
0.00211087
0.0022334
0.00232045
0.0023795
0.00242326
0.00246383
0.00249967
0.00252944
0.00253895
0.00251984
0.00247793
0.00242195
0.00235695
0.00228748
0.00221679
0.0021486
0.00208276
0.00199633
0.00187989
0.00172923
0.00154352
0.00131622
0.00155481
0.00135283
0.00121223
0.00116489
0.00123765
0.00138844
0.00158879
0.00179137
0.00197123
0.00211947
0.00223416
0.00232003
0.00238308
0.00243654
0.00248204
0.00251995
0.00253745
0.00252624
0.00249108
0.00244171
0.00238276
0.00232003
0.00225411
0.00218894
0.00211942
0.00203157
0.00191339
0.00175999
0.0015694
0.00133603
0.00180189
0.00157683
0.00138547
0.00125658
0.00122414
0.00130367
0.00145644
0.00164437
0.00182997
0.00199528
0.00213244
0.00224218
0.0023282
0.00239673
0.00245203
0.00249791
0.0025236
0.00252113
0.00249358
0.00245184
0.00240035
0.00234557
0.00228755
0.0022233
0.00214871
0.0020572
0.00193644
0.00177978
0.00158431
0.00134564
0.00210609
0.0018686
0.00164386
0.00145034
0.00132502
0.00130021
0.00138094
0.00152758
0.00170043
0.00187069
0.0020226
0.00215132
0.00225743
0.00234508
0.00241206
0.00246555
0.00249967
0.00250674
0.00248795
0.00245539
0.00241348
0.00236725
0.00231556
0.00225077
0.002172
0.00207523
0.00195078
0.00179039
0.00158986
0.0013464
0.00245203
0.00220917
0.00196368
0.00172538
0.00152367
0.00139972
0.00137931
0.00146037
0.00159788
0.00175686
0.001913
0.00205362
0.00217517
0.00227873
0.00236106
0.00242513
0.00246809
0.0024854
0.00247726
0.00245464
0.0024218
0.0023828
0.00233542
0.00227055
0.00218913
0.00208737
0.00195891
0.00179401
0.00158789
0.00133883
0.00281901
0.00257543
0.0023177
0.00205037
0.00179412
0.00158662
0.00146844
0.0014554
0.00153625
0.0016658
0.00181264
0.00195561
0.00208572
0.0022002
0.00229461
0.00237055
0.00242409
0.00245216
0.00245539
0.00244294
0.00241834
0.00238701
0.00234297
0.0022803
0.00219946
0.00209637
0.00196295
0.00179277
0.00158046
0.00132583
0.00318003
0.0029389
0.00267542
0.00239127
0.00210025
0.00183244
0.00163013
0.00152491
0.00152518
0.00160607
0.00172949
0.00186229
0.00199142
0.00210894
0.00220858
0.0022906
0.00235105
0.00238854
0.00240336
0.00240251
0.00238919
0.00236542
0.00233061
0.00227641
0.00219879
0.00209453
0.0019596
0.00178645
0.00156855
0.00130951
0.00350076
0.00326511
0.00300244
0.00271233
0.00240365
0.00209888
0.0018352
0.00165017
0.00156853
0.00158241
0.00165979
0.00177116
0.00188653
0.0019947
0.00208734
0.00216503
0.00222457
0.00226641
0.00229146
0.00230474
0.00230769
0.00230122
0.00228312
0.00224615
0.00218259
0.00208441
0.00194551
0.00177084
0.00155107
0.00129013
0.00373801
0.00351291
0.0032593
0.00297473
0.00266431
0.00234379
0.00204286
0.00179773
0.00164179
0.00158376
0.00160139
0.00166625
0.00174863
0.00182902
0.0018987
0.00195818
0.00200646
0.00204704
0.00207968
0.00210816
0.0021316
0.00214903
0.00215706
0.00214832
0.00211338
0.00204081
0.00191714
0.00174255
0.00152363
0.00126406
0.00384236
0.00363659
0.0034032
0.00313738
0.0028408
0.00252341
0.0022072
0.00192352
0.00170805
0.00157931
0.00152809
0.0015292
0.00155951
0.00159792
0.00163682
0.00167369
0.00170793
0.0017421
0.00177735
0.00181481
0.00185326
0.00189159
0.00192623
0.00194996
0.00195266
0.00192132
0.00183773
0.00168816
0.00148106
0.0012327
0.00377535
0.00360293
0.00340395
0.00317165
0.00290474
0.00260895
0.00230087
0.0020074
0.00176197
0.00158646
0.00148109
0.0014295
0.0014184
0.00143053
0.00145623
0.00148564
0.00151297
0.00153945
0.0015676
0.00159598
0.00162599
0.00165832
0.00169178
0.00172181
0.00174051
0.00173619
0.00169117
0.00158323
0.0014093
0.00120135
0.00355544
0.00343425
0.00328775
0.00310772
0.00289134
0.00264352
0.00237938
0.0021235
0.00190243
0.00173529
0.00162291
0.0015612
0.00154435
0.0015569
0.0015873
0.00161988
0.00164511
0.00166563
0.00168162
0.00169207
0.00169877
0.00170357
0.00170724
0.00170741
0.001699
0.00167323
0.00161529
0.00150665
0.00133483
0.00115428
0.00334552
0.00328789
0.00320406
0.00308815
0.0029385
0.00276173
0.00257262
0.0023887
0.00222636
0.00209811
0.00200748
0.00196015
0.00194847
0.00196242
0.00199101
0.00202084
0.00204265
0.00206074
0.00207193
0.0020766
0.00207544
0.00206918
0.00205855
0.00203987
0.00200797
0.00195438
0.00186421
0.00171583
0.00149886
0.00130543
0.00324778
0.00322719
0.00320197
0.00315312
0.00307496
0.00297485
0.00285797
0.00273849
0.00262646
0.00253152
0.00246126
0.00241967
0.00240226
0.0024043
0.00241676
0.00243362
0.00244809
0.00246296
0.00247565
0.00248708
0.00249725
0.00250469
0.00251072
0.0025091
0.0024953
0.00246239
0.00239682
0.00227968
0.00210297
0.00196903
0.00323521
0.00323534
0.00323597
0.00321782
0.00317727
0.00312418
0.00305975
0.00298752
0.00291458
0.00285108
0.00279937
0.0027609
0.00273612
0.00272509
0.00272188
0.00272772
0.00273653
0.00275006
0.0027675
0.00278946
0.00281508
0.0028438
0.00286995
0.00289406
0.00291284
0.00292281
0.00291492
0.00288355
0.00283567
0.00279664
0.000237425
0.000244552
0.000239478
0.000232144
0.000223186
0.000213274
0.000202983
0.000192746
0.000182817
0.000173391
0.000164534
0.000156359
0.000148845
0.000142169
0.000136362
0.000131666
0.000128233
0.00012682
0.000127907
0.000130566
0.000132786
0.000132975
0.000130147
0.000123655
0.000113007
9.75966e-05
8.12187e-05
0.000348235
8.69429e-05
9.38707e-05
0.00102928
0.00118002
0.00118436
0.00111962
0.00103528
0.000952179
0.000876537
0.000810108
0.000751464
0.000699957
0.00065371
0.000612478
0.00057374
0.000538931
0.000506037
0.0004758
0.000445878
0.000424903
0.00041526
0.000418177
0.000429317
0.000440827
0.000441055
0.000421542
0.00038232
0.000330048
0.000275024
0.000335797
0.000323522
0.00037201
0.00165265
0.00194221
0.00201312
0.001967
0.00187037
0.00175787
0.00164506
0.00153949
0.00144222
0.00135405
0.00127301
0.00119936
0.00112947
0.00106596
0.00100672
0.000950778
0.000893064
0.000846902
0.000813666
0.00079857
0.000799903
0.000806914
0.000796716
0.000760092
0.000692089
0.000596155
0.00048815
0.000427904
0.00043339
0.000502528
0.00211536
0.00246088
0.00258077
0.00257175
0.00249106
0.00238063
0.00225905
0.00213804
0.00202177
0.00191311
0.00181116
0.00171716
0.00162784
0.00154608
0.00147071
0.0013991
0.00132335
0.00125658
0.00120048
0.00116405
0.00114809
0.00114147
0.00112125
0.00106969
0.000979143
0.000852742
0.000704315
0.000567028
0.0005148
0.000548696
0.0024253
0.00278213
0.00294828
0.00298282
0.00292932
0.0028364
0.00272192
0.00260108
0.00247945
0.00236285
0.0022513
0.00214749
0.00204819
0.00195743
0.00187492
0.00179569
0.00170862
0.00162503
0.00154861
0.00149197
0.0014583
0.00143751
0.00140576
0.00134323
0.00123929
0.00109459
0.000920669
0.000738235
0.000625483
0.000605718
0.00261306
0.00295192
0.00315123
0.00323096
0.00322289
0.00315773
0.00305906
0.00294942
0.00283128
0.00271664
0.00260404
0.0024985
0.00239735
0.00230545
0.00222221
0.00214123
0.00204703
0.00194913
0.00185502
0.00178047
0.00172986
0.00169596
0.00165498
0.00158444
0.00147375
0.00132026
0.00113295
0.000925343
0.000768437
0.000701877
0.00275133
0.00306671
0.0032708
0.00337723
0.00340348
0.00337343
0.00330153
0.00320267
0.00309196
0.00298876
0.00288133
0.00278074
0.00268441
0.00259785
0.00251853
0.00244016
0.0023413
0.00223136
0.00212223
0.00203226
0.00196758
0.00192089
0.00187184
0.00179837
0.00168493
0.00152954
0.00133825
0.00111856
0.000932216
0.000826225
0.0028469
0.00310303
0.00330195
0.00343047
0.00349018
0.00349402
0.00345361
0.00338045
0.00329543
0.00319617
0.00309267
0.00300388
0.00291685
0.0028404
0.00276959
0.00269674
0.00259501
0.00247528
0.00235384
0.00225107
0.00217406
0.00211637
0.00206028
0.00198603
0.0018751
0.00172356
0.0015346
0.00131318
0.00110559
0.000965287
0.00283411
0.00305481
0.00325192
0.00340337
0.00349717
0.00353611
0.0035303
0.00348735
0.00342399
0.00334476
0.00326385
0.00317807
0.00310139
0.00303894
0.00298016
0.00291458
0.00281177
0.00268438
0.00255381
0.0024408
0.00235336
0.00228625
0.00222461
0.00215052
0.00204806
0.00190085
0.00171598
0.00149823
0.00128191
0.00110869
0.00273534
0.00292892
0.00312901
0.0033069
0.00343588
0.00351234
0.00354196
0.00353323
0.00349672
0.0034412
0.00337789
0.00330876
0.00324816
0.00319853
0.00315422
0.0030969
0.00299447
0.00286199
0.0027241
0.00260509
0.00250987
0.00243442
0.00236911
0.00229733
0.00219867
0.00205879
0.00188392
0.00167175
0.00145066
0.0012491
0.00260852
0.00276316
0.00295479
0.0031505
0.0033152
0.00343179
0.00349986
0.00352556
0.00352046
0.00349157
0.00345003
0.00340188
0.00335728
0.00332608
0.00329515
0.0032464
0.00314612
0.0030115
0.00287029
0.00274752
0.00264709
0.00256617
0.00249955
0.00242538
0.00232934
0.00219933
0.00203504
0.00183116
0.00160933
0.00138829
0.00247942
0.00257364
0.00274259
0.00294812
0.00314428
0.00330171
0.0034111
0.00347346
0.00350089
0.00350164
0.00348501
0.00345984
0.0034354
0.0034217
0.00340542
0.00336561
0.00326949
0.00313542
0.00299471
0.00287073
0.002769
0.00268603
0.00261248
0.00253659
0.00244324
0.00232485
0.00216896
0.00197277
0.00175168
0.00151687
0.00237003
0.00237799
0.00251065
0.00271335
0.00293293
0.00312819
0.00327926
0.00338249
0.00344529
0.00347633
0.00348697
0.00348668
0.00348442
0.00348967
0.00348829
0.00345732
0.0033671
0.00323631
0.00310042
0.00297862
0.00287282
0.0027844
0.00270786
0.00263261
0.00254265
0.00243511
0.00228677
0.00209661
0.00187593
0.00163024
0.00228511
0.00220866
0.00228747
0.00246746
0.00269561
0.00292065
0.00311092
0.00325499
0.00335582
0.0034212
0.00346027
0.0034858
0.00350732
0.00353173
0.00354537
0.00352406
0.00344238
0.00331745
0.00318632
0.00306489
0.0029578
0.0028672
0.00278818
0.00271568
0.00263363
0.00253035
0.0023894
0.00220322
0.00198189
0.00172692
0.002288
0.00211336
0.00211257
0.00224162
0.00245476
0.00269366
0.00291515
0.00309724
0.00323624
0.00333722
0.00340861
0.00346092
0.00350602
0.00354986
0.00357884
0.00356832
0.00349843
0.00338146
0.0032596
0.00314417
0.00303739
0.0029454
0.00286548
0.00279211
0.00271386
0.00261238
0.00247545
0.00229239
0.00206949
0.00180617
0.002365
0.00213472
0.00202866
0.00207613
0.00224275
0.00246959
0.00270612
0.00291821
0.0030924
0.00322854
0.0033328
0.00341439
0.00348318
0.00354582
0.00359074
0.00359233
0.00353692
0.00343132
0.00331951
0.00321219
0.00311121
0.00302036
0.00294059
0.00286396
0.00278392
0.00268214
0.00254626
0.00236551
0.00213936
0.00186801
0.00253056
0.00225753
0.00207087
0.00201664
0.00210263
0.00227988
0.00250505
0.0027313
0.00293259
0.00310033
0.00323629
0.00334706
0.00344062
0.00352156
0.00358211
0.0035974
0.00355836
0.00346802
0.00336779
0.00326965
0.00317672
0.00309125
0.00301141
0.00292982
0.00284481
0.00274038
0.0026029
0.00242183
0.0021917
0.00191266
0.00280577
0.00250363
0.00225187
0.00209419
0.0020571
0.00216131
0.00234007
0.00255517
0.00276844
0.00295953
0.00312317
0.00326108
0.00337829
0.0034774
0.0035531
0.00358314
0.00356188
0.00349034
0.00340347
0.00331661
0.00323345
0.00315401
0.00307344
0.00298752
0.00289634
0.00278749
0.00264633
0.00246208
0.00222754
0.00194084
0.00316865
0.00285091
0.00255453
0.00231211
0.00216396
0.00214115
0.00224408
0.00241243
0.00261487
0.00281485
0.0029982
0.00315816
0.00329528
0.00341159
0.00350023
0.00354503
0.00354204
0.00349275
0.00342117
0.00334766
0.00327433
0.00320058
0.00311996
0.00303277
0.00293722
0.00282322
0.0026769
0.00248772
0.00224748
0.00195306
0.0035827
0.00325889
0.00293527
0.00263332
0.00238981
0.00224736
0.00222964
0.00232753
0.00248821
0.00267515
0.00286588
0.00303819
0.00318861
0.00331642
0.00341328
0.00346971
0.00348368
0.00345809
0.00340546
0.00334621
0.00328394
0.00321603
0.00314202
0.00306209
0.00296624
0.00284793
0.00269546
0.00250036
0.00225179
0.00194962
0.0040034
0.00367913
0.00334094
0.00300208
0.00269085
0.00244786
0.00231358
0.00230358
0.00239362
0.00255136
0.00272847
0.00289646
0.00305024
0.00317676
0.00327263
0.0033342
0.00336286
0.00335818
0.00332948
0.00328934
0.00324532
0.00319592
0.00313659
0.00306289
0.00297163
0.00285951
0.0027056
0.00250383
0.00224771
0.00193697
0.00438166
0.00406125
0.00371859
0.00336134
0.00300968
0.00269637
0.00246363
0.00234513
0.0023426
0.00242873
0.00256912
0.00271779
0.00285344
0.0029672
0.00304973
0.00310836
0.00314671
0.00315863
0.00315464
0.00314082
0.00312261
0.00309952
0.00306653
0.00301524
0.00293514
0.00282033
0.00267671
0.00248332
0.0022287
0.00191488
0.00466711
0.00435622
0.00401918
0.00365967
0.00329116
0.00293765
0.00263507
0.00242174
0.00231899
0.00231569
0.00238441
0.00248311
0.00258198
0.00266803
0.00272863
0.00277919
0.00281829
0.00284515
0.00286314
0.00287764
0.00288928
0.0028979
0.00289823
0.00288096
0.0028338
0.00274055
0.00259959
0.00241526
0.00217779
0.00187642
0.00481257
0.00452056
0.00420119
0.00385502
0.00349008
0.00312266
0.0027802
0.00249733
0.00230386
0.00220611
0.00218482
0.0022123
0.00226195
0.00231518
0.00236489
0.00241029
0.00245069
0.00248588
0.00251796
0.00255064
0.00258219
0.00261312
0.0026393
0.00265221
0.00264004
0.00258737
0.00247386
0.00230635
0.00207847
0.00180192
0.00478781
0.00452814
0.00424157
0.00392559
0.00358378
0.00322686
0.00287549
0.00255948
0.00231018
0.00214319
0.00204964
0.00201875
0.00203335
0.00207152
0.00212637
0.00217751
0.00222055
0.00225622
0.00229021
0.0023199
0.00234666
0.00237212
0.00239505
0.00240979
0.00240713
0.00237448
0.0022944
0.00214885
0.00195643
0.0017099
0.00460419
0.0043962
0.00416217
0.00389654
0.00359996
0.00328103
0.0029572
0.00265585
0.00240673
0.00222324
0.00210496
0.00205683
0.00206261
0.00210281
0.00216706
0.0022241
0.0022662
0.00229727
0.0023222
0.0023368
0.00234334
0.00234382
0.0023389
0.00232548
0.00229707
0.00224394
0.00215182
0.00200726
0.00181024
0.00160035