/*--------------------------------*- C++ -*----------------------------------*\
| =========                 |                                                 |
| \\      /  F ield         | OpenFOAM: The Open Source CFD Toolbox           |
|  \\    /   O peration     | Version:  5.0                                   |
|   \\  /    A nd           | Web:      www.OpenFOAM.org                      |
|    \\/     M anipulation  |                                                 |
\*---------------------------------------------------------------------------*/
FoamFile
{
    version     2.0;
    format      ascii;
    class       volScalarField;
    location    "1950/air";
    object      epsilon;
}
// * * * * * * * * * * * * * * * * * * * * * * * * * * * * * * * * * * * * * //

dimensions      [0 2 -3 0 0 0 0];

internalField   nonuniform List<scalar> 
243000
(
3.57603
4.36869
4.7601
4.99092
5.07297
5.03716
4.90328
4.69282
4.42568
4.12275
3.80115
3.47524
3.14915
2.83272
2.53171
2.25603
2.01126
1.80772
1.78708
1.69541
1.56783
1.40985
0.290547
1.11801
0.226513
0.193578
0.167669
0.131433
0.121095
0.532659
1.873
2.21751
2.29383
2.27625
2.2003
2.08764
1.95342
1.80866
1.66041
1.5144
1.37386
1.24118
1.11639
1.0021
0.899235
0.809131
0.731632
0.669824
0.626526
0.594753
0.566485
0.530525
0.490223
0.438197
0.374176
0.308614
0.244122
0.180495
0.167708
0.242006
2.35224
2.75658
2.87428
2.86425
2.77691
2.64154
2.47779
2.29942
2.1156
1.934
1.75867
1.59291
1.43733
1.29557
1.16893
1.05903
0.965282
0.89113
0.835386
0.79377
0.757287
0.716482
0.663913
0.59566
0.513749
0.423162
0.329207
0.241411
0.197034
0.254379
2.59354
3.04059
3.20316
3.22552
3.15533
3.02587
2.85882
2.66999
2.47047
2.26972
2.07349
1.88669
1.71076
1.55051
1.40792
1.28508
1.18111
1.09947
1.03675
0.98762
0.942689
0.892731
0.829187
0.747521
0.649382
0.539213
0.422929
0.314428
0.246565
0.256214
2.64113
3.09397
3.32666
3.40069
3.36749
3.26397
3.1125
2.9307
2.73118
2.5253
2.32043
2.12322
1.93634
1.76586
1.61435
1.48467
1.37563
1.29041
1.22359
1.16845
1.1154
1.05589
0.98177
0.888468
0.777051
0.651691
0.518514
0.392761
0.304638
0.269607
2.55193
3.00257
3.29066
3.42677
3.44473
3.37992
3.25714
3.095
2.90754
2.70788
2.50448
2.30584
2.11596
1.9424
1.78778
1.65647
1.54663
1.46091
1.39199
1.33205
1.27161
1.20296
1.11906
1.01576
0.893697
0.756699
0.610787
0.470887
0.365909
0.299583
2.35787
2.8168
3.15097
3.34283
3.41584
3.39879
3.31122
3.1763
3.01038
2.82582
2.63205
2.43932
2.25295
2.08209
1.92926
1.80048
1.69328
1.60932
1.53984
1.47623
1.40934
1.33247
1.23986
1.12813
0.997753
0.851944
0.696437
0.545493
0.426604
0.339219
2.09122
2.56292
2.93357
3.17696
3.30483
3.33777
3.2941
3.19346
3.05134
2.88745
2.70985
2.52896
2.3514
2.1875
2.04054
1.91753
1.81559
1.73506
1.66621
1.60002
1.52781
1.44394
1.34391
1.2253
1.08858
0.936279
0.773947
0.615484
0.485262
0.381913
1.79226
2.26927
2.66704
2.95409
3.13312
3.21484
3.21638
3.15434
3.04612
2.9056
2.7453
2.58034
2.41545
2.26197
2.12387
2.00902
1.91419
1.83826
1.77099
1.70328
1.62702
1.53753
1.43154
1.30757
1.16622
1.00961
0.841898
0.678517
0.539296
0.425143
1.52717
1.98209
2.38411
2.69882
2.92032
3.04734
3.09296
3.07139
2.99736
2.88544
2.74919
2.59972
2.44962
2.30893
2.1818
2.0767
1.99012
1.91957
1.85463
1.78639
1.70736
1.61377
1.50339
1.37558
1.23132
1.07149
0.899351
0.734268
0.588472
0.464152
1.30553
1.71464
2.11431
2.44413
2.68788
2.85129
2.93693
2.95461
2.91569
2.8336
2.72146
2.59341
2.45915
2.33188
2.21701
2.12252
2.04473
1.98005
1.918
1.85013
1.76966
1.67349
1.56034
1.43034
1.28429
1.12185
0.946756
0.782622
0.632601
0.500473
1.14523
1.47164
1.85462
2.1957
2.46164
2.64805
2.76162
2.81351
2.80866
2.75664
2.6701
2.56299
2.44657
2.33464
2.2322
2.14856
2.07959
2.02105
1.96228
1.89562
1.81496
1.71772
1.60361
1.47273
1.32529
1.16136
0.987654
0.824798
0.671865
0.533611
1.06808
1.26826
1.60819
1.95096
2.23704
2.44787
2.58548
2.6592
2.68357
2.66043
2.59947
2.51413
2.41586
2.31924
2.22979
2.15692
2.0966
2.04395
1.98886
1.92417
1.84458
1.74805
1.63398
1.50279
1.35496
1.19062
1.02227
0.861312
0.706452
0.563245
1.09606
1.13346
1.38816
1.71249
2.01218
2.24724
2.41032
2.50738
2.55089
2.55127
2.51421
2.45039
2.37032
2.28889
2.21225
2.14974
2.09723
2.05051
1.99944
1.93765
1.85995
1.76451
1.65134
1.52111
1.37396
1.21112
1.05008
0.892127
0.736369
0.589539
1.24337
1.10461
1.22309
1.49207
1.78946
2.04468
2.23364
2.35541
2.41982
2.43767
2.41942
2.3753
2.31293
2.24621
2.18186
2.1291
2.08409
2.04273
1.99528
1.93587
1.86042
1.76724
1.65614
1.528
1.38304
1.22744
1.07243
0.91767
0.761711
0.612504
1.50247
1.22486
1.15862
1.31665
1.5794
1.8423
2.05436
2.20152
2.2884
2.32494
2.32217
2.29294
2.2465
2.19366
2.14085
2.09711
2.05894
2.02261
1.97914
1.92313
1.85026
1.7596
1.65087
1.52514
1.38401
1.23811
1.08942
0.938137
0.782525
0.632195
1.85842
1.49987
1.25056
1.23219
1.40643
1.64923
1.87449
2.04515
2.15532
2.21183
2.22554
2.20874
2.17424
2.13367
2.09135
2.0558
2.02385
1.9922
1.95267
1.90032
1.83118
1.74354
1.63785
1.51545
1.38231
1.24434
1.10157
0.953805
0.798933
0.648392
2.27302
1.88513
1.51392
1.29533
1.31226
1.48663
1.70193
1.88823
2.02037
2.0975
2.12848
2.12539
2.10058
2.06891
2.03552
2.0072
1.98087
1.95354
1.91788
1.86935
1.80426
1.72073
1.6188
1.50273
1.37787
1.24676
1.10941
0.965027
0.811119
0.661464
2.71778
2.32713
1.90575
1.53184
1.34785
1.38994
1.55397
1.73727
1.88524
1.98192
2.03056
2.0419
2.02797
2.00279
1.97577
1.95339
1.93197
1.90863
1.87678
1.83217
1.77141
1.69256
1.59648
1.48864
1.37117
1.24601
1.1135
0.972242
0.819365
0.671628
3.19792
2.80955
2.37159
1.91281
1.54721
1.40131
1.45879
1.60557
1.75502
1.86654
1.93191
1.95782
1.95562
1.93818
1.91557
1.89679
1.87922
1.85945
1.83134
1.79074
1.73452
1.66174
1.57387
1.47356
1.36276
1.24299
1.11449
0.975969
0.824049
0.678557
3.70778
3.31077
2.8704
2.37822
1.8929
1.55481
1.44904
1.51411
1.63951
1.75522
1.83375
1.87344
1.88309
1.87439
1.85734
1.84086
1.82508
1.80816
1.78354
1.74703
1.69701
1.63171
1.55138
1.45801
1.35329
1.2384
1.1133
0.976842
0.82564
0.683434
4.241
3.8414
3.39291
2.88413
2.33488
1.84521
1.55426
1.48755
1.55379
1.65505
1.739
1.78983
1.81064
1.81119
1.80063
1.78765
1.77425
1.7592
1.7378
1.70597
1.66162
1.60299
1.52968
1.44284
1.34376
1.23323
1.111
0.975925
0.824921
0.687055
4.79377
4.38446
3.92551
3.40411
2.8222
2.23552
1.77689
1.54816
1.51534
1.57661
1.65292
1.70946
1.73956
1.749
1.74563
1.73719
1.7268
1.7141
1.69577
1.66819
1.62909
1.57659
1.50992
1.42931
1.33557
1.22903
1.10903
0.974517
0.823026
0.690703
5.35881
4.9336
4.45968
3.92469
3.32274
2.67997
2.09527
1.70297
1.54112
1.53291
1.58383
1.63715
1.67281
1.68998
1.69393
1.69091
1.68427
1.67442
1.65919
1.63558
1.60132
1.5544
1.49398
1.41925
1.33048
1.22744
1.10911
0.974193
0.821365
0.700624
5.90409
5.46821
4.98331
4.4368
3.82145
3.14799
2.48094
1.94806
1.64369
1.54012
1.54468
1.58268
1.61807
1.64083
1.65193
1.65518
1.65316
1.6468
1.63476
1.61469
1.58446
1.54222
1.48642
1.41635
1.33177
1.23205
1.11499
0.978409
0.822625
0.724863
6.447
6.00241
5.50866
4.954
4.33053
3.64117
2.92532
2.28595
1.8435
1.62595
1.56281
1.57074
1.5989
1.62516
1.644
1.65505
1.65908
1.65686
1.6476
1.62962
1.6013
1.56121
1.50804
1.44058
1.35788
1.25844
1.13913
0.996412
0.833594
0.767979
7.04302
6.59761
6.10148
5.54426
4.91897
4.22573
3.48656
2.77627
2.21345
1.87192
1.72264
1.68685
1.70167
1.73243
1.76344
1.78658
1.79884
1.8005
1.79087
1.7693
1.73545
1.6891
1.62977
1.55619
1.46657
1.35841
1.22689
1.06608
0.881985
0.852576
7.863
7.42939
6.94472
6.40414
5.80427
5.14257
4.42572
3.69699
3.05321
2.59886
2.35838
2.27672
2.28419
2.3334
2.39126
2.43538
2.4559
2.45347
2.42761
2.38039
2.31488
2.23425
2.14024
2.03144
1.90343
1.75334
1.57464
1.35485
1.09945
1.09524
9.64929
9.26683
8.86762
8.45063
8.00607
7.51926
6.96992
6.36706
5.76089
5.27638
4.9968
4.90713
4.9419
5.05009
5.16194
5.2339
5.24508
5.20464
5.11628
4.98616
4.82546
4.64338
4.44732
4.23211
3.97181
3.68002
3.3516
2.95211
2.48344
2.407
17.3613
17.219
17.2606
17.2935
17.2795
17.1966
17.0138
16.7367
16.2942
15.877
15.5903
15.4395
15.3996
15.4922
15.5887
15.6502
15.6216
15.5845
15.5281
15.4707
15.4086
15.3568
15.3114
15.251
14.9538
14.6195
14.2414
13.6956
12.9625
12.5679
6.38092
8.21233
9.14055
9.67214
9.88071
9.82939
9.57572
9.17456
8.6659
8.08558
7.45855
6.81536
6.17094
5.5568
4.98623
4.48287
4.05371
3.72188
3.48381
3.29855
3.08589
2.77665
2.35127
1.83624
1.29865
0.865524
0.172099
0.140407
0.566725
0.592473
4.01121
4.66167
5.08334
5.32362
5.40797
5.35545
5.1913
4.94677
4.64838
4.31688
3.96905
3.61947
3.28025
2.96364
2.6806
2.44112
2.25093
2.12001
2.05039
2.01322
1.95261
1.82247
1.60865
1.32629
1.00772
0.698065
0.381175
0.254418
0.307732
0.301545
3.53929
3.99387
4.28093
4.43966
4.49294
4.45182
4.32856
4.14135
3.90811
3.64544
3.36742
3.08658
2.81323
2.559
2.33359
2.14823
2.00742
1.91864
1.88179
1.87156
1.83988
1.74743
1.57833
1.34149
1.06685
0.784148
0.513641
0.329148
0.311237
0.286021
3.2514
3.62255
3.86233
3.99871
4.0524
4.03277
3.94484
3.79979
3.61079
3.39179
3.1552
2.91277
2.6738
2.45144
2.25514
2.09666
1.97962
1.91057
1.88561
1.88145
1.85615
1.77514
1.62373
1.40974
1.15531
0.885005
0.621994
0.406085
0.305762
0.261512
2.97926
3.2829
3.50677
3.64695
3.71718
3.72566
3.67268
3.5654
3.41446
3.23209
3.0294
2.81751
2.60617
2.40885
2.23505
2.09712
1.99881
1.94402
1.92608
1.92207
1.8954
1.81706
1.67514
1.47513
1.23546
0.976509
0.719067
0.488735
0.344961
0.272024
2.67694
2.92869
3.15285
3.30969
3.40568
3.44502
3.42621
3.35443
3.23876
3.0904
2.9191
2.73575
2.54991
2.37576
2.22284
2.10436
2.02296
1.98079
1.96807
1.96213
1.9314
1.8522
1.71566
1.52605
1.29945
1.05292
0.803765
0.570801
0.407848
0.316961
2.34053
2.56036
2.79219
2.97256
3.09843
3.16896
3.17968
3.14144
3.06003
2.94518
2.80443
2.64927
2.48826
2.33666
2.20409
2.10411
2.03933
2.00905
2.00061
1.99212
1.95644
1.876
1.74232
1.56129
1.34714
1.11371
0.875927
0.648235
0.479007
0.376105
1.98131
2.18411
2.43021
2.63723
2.79376
2.89182
2.92858
2.9223
2.87345
2.78988
2.67976
2.55295
2.41694
2.28729
2.17462
2.09288
2.04376
2.0245
2.0197
2.00879
1.96898
1.8853
1.75444
1.58196
1.38011
1.16027
0.9354
0.71861
0.550493
0.438755
1.62753
1.82018
2.08069
2.31207
2.49648
2.61514
2.67911
2.70287
2.6851
2.6307
2.54822
2.44706
2.3358
2.22732
2.13382
2.06949
2.03503
2.02567
2.02394
2.01038
1.96592
1.88055
1.7524
1.58903
1.40016
1.19423
0.983155
0.780613
0.617984
0.50046
1.36133
1.52976
1.77638
2.01386
2.2167
2.35033
2.43965
2.48919
2.49893
2.47145
2.41424
2.336
2.24645
2.15805
2.08256
2.03443
2.0133
2.01237
2.01343
1.99828
1.95177
1.86548
1.74093
1.58554
1.40937
1.21741
1.02064
0.833792
0.679326
0.558536
1.18092
1.31485
1.53957
1.77455
1.97183
2.11021
2.2173
2.28658
2.31825
2.31356
2.27779
2.2204
2.15081
2.08118
2.02222
1.98885
1.97901
1.98523
1.98867
1.97269
1.92524
1.84103
1.72115
1.57457
1.409
1.23128
1.05083
0.878877
0.733433
0.611938
1.06635
1.15196
1.34858
1.5774
1.77395
1.91418
2.02286
2.10136
2.14747
2.15948
2.14215
2.10306
2.05125
1.99853
1.95443
1.93394
1.93334
1.94526
1.95062
1.9346
1.88776
1.80703
1.69397
1.55691
1.40239
1.23796
1.07432
0.916629
0.779988
0.660701
1.0113
1.03517
1.19209
1.40638
1.60447
1.75406
1.86458
1.94192
1.99167
2.01395
2.01083
1.98683
1.9502
1.91203
1.88098
1.87102
1.87776
1.89379
1.90064
1.88533
1.84053
1.76458
1.66037
1.53321
1.39022
1.23965
1.09193
0.947793
0.8196
0.703143
1.03656
0.975065
1.07062
1.25339
1.44986
1.61485
1.7333
1.81085
1.85837
1.8825
1.88753
1.87468
1.85012
1.82383
1.80358
1.80179
1.81385
1.83249
1.84043
1.82647
1.78493
1.71501
1.62014
1.50402
1.37348
1.23822
1.10488
0.97326
0.852949
0.739451
1.1428
1.00261
1.01132
1.13792
1.31017
1.48659
1.61805
1.69942
1.74651
1.76988
1.77661
1.76973
1.75358
1.73615
1.72416
1.72812
1.74351
1.76338
1.77207
1.75999
1.72266
1.65973
1.5745
1.47047
1.35424
1.23403
1.11392
0.993778
0.88066
0.769962
1.33435
1.12925
1.03389
1.0793
1.20876
1.37099
1.51174
1.6009
1.65081
1.67453
1.68124
1.67536
1.66326
1.65133
1.64486
1.65217
1.66898
1.68886
1.69795
1.68805
1.65556
1.60038
1.52531
1.4346
1.33368
1.2276
1.11959
1.00993
0.903316
0.795361
1.60862
1.36498
1.17666
1.1037
1.15871
1.27798
1.41278
1.51073
1.56671
1.59281
1.60022
1.59415
1.58223
1.57197
1.5681
1.57647
1.59294
1.61174
1.62086
1.61321
1.58594
1.53914
1.47506
1.39895
1.31258
1.21955
1.12245
1.02224
0.921331
0.815779
1.95928
1.69858
1.44891
1.25778
1.18945
1.23375
1.33322
1.43002
1.49176
1.52194
1.53118
1.5256
1.5131
1.50113
1.49691
1.50414
1.51872
1.5355
1.54425
1.53888
1.51716
1.47963
1.42782
1.36512
1.2921
1.21079
1.12317
1.03128
0.935141
0.831537
2.37748
2.11049
1.83092
1.55244
1.34925
1.27288
1.29638
1.36774
1.42771
1.46103
1.47272
1.46849
1.45618
1.44225
1.43548
1.43943
1.45089
1.46496
1.47309
1.47036
1.45513
1.42649
1.38556
1.3352
1.27389
1.2026
1.12294
1.03795
0.945489
0.843658
2.85741
2.5874
2.29386
1.96505
1.65019
1.43157
1.34111
1.34446
1.3832
1.41277
1.4255
1.42291
1.41174
1.39739
1.38869
1.38924
1.39721
1.40842
1.41628
1.41571
1.4052
1.38406
1.35322
1.31279
1.26048
1.19687
1.12309
1.04336
0.953184
0.851876
3.39584
3.12255
2.81902
2.46146
2.07173
1.72327
1.49416
1.3904
1.37406
1.38574
1.39401
1.39196
1.38286
1.37029
1.36253
1.36188
1.36756
1.37642
1.38307
1.38319
1.37595
1.36103
1.33762
1.30284
1.2553
1.19603
1.12629
1.04941
0.959371
0.857042
3.99778
3.72088
3.40522
3.02454
2.58485
2.13701
1.77042
1.53516
1.42919
1.3968
1.39044
1.3859
1.38
1.3728
1.37076
1.37388
1.38065
1.38788
1.39265
1.39228
1.38592
1.37334
1.35245
1.31977
1.27355
1.21339
1.14107
1.06107
0.966637
0.860548
4.68681
4.40433
4.07234
3.66586
3.18559
2.66486
2.18185
1.81137
1.58898
1.48486
1.44621
1.43478
1.43427
1.43899
1.45224
1.46823
1.4823
1.49134
1.49378
1.48901
1.47734
1.45898
1.431
1.39095
1.33687
1.26811
1.18453
1.09044
0.981097
0.865456
5.52549
5.23523
4.8829
4.44668
3.92822
3.35167
2.77834
2.28482
1.93675
1.73987
1.65188
1.62777
1.64106
1.67426
1.72442
1.77277
1.80627
1.82227
1.81946
1.79882
1.76441
1.71796
1.65991
1.58948
1.50503
1.40582
1.29062
1.16265
1.018
0.880281
6.66826
6.37257
6.00254
5.54184
4.99647
4.38742
3.75868
3.17324
2.71681
2.42775
2.28928
2.26313
2.32222
2.43364
2.58028
2.71125
2.79131
2.81824
2.79058
2.7126
2.59684
2.4557
2.29877
2.13082
1.9523
1.76294
1.5598
1.34595
1.11708
0.925845
8.51166
8.22854
7.86922
7.4256
6.91114
6.34592
5.75638
5.1823
4.71415
4.41583
4.30583
4.37717
4.61512
4.97014
5.38911
5.73699
5.92322
5.95084
5.81253
5.52755
5.13566
4.6818
4.20422
3.72462
3.25159
2.7873
2.32554
1.86549
1.41172
1.07004
12.1495
11.949
11.7018
11.4121
11.1122
10.8324
10.5732
10.3434
10.2032
10.2277
10.4895
11.0306
11.8426
12.8498
13.9053
14.7056
15.0795
15.0422
14.5686
13.7142
12.5768
11.279
9.92401
8.57482
7.26225
5.99918
4.77832
3.58363
2.44883
1.66408
20.5065
20.4839
20.5335
20.6588
20.9508
21.4703
22.1522
22.8712
23.6458
24.5637
25.7581
27.307
29.1455
31.1315
32.9533
34.1959
34.7015
34.4657
33.4345
31.7067
29.4315
26.8149
24.0252
21.158
18.2548
15.3528
12.456
9.49474
6.57046
4.65091
35.7902
35.9438
36.6543
37.7527
39.2277
41.0582
42.818
44.4449
45.9661
47.5096
49.3576
51.4423
53.5245
55.4356
56.7294
57.2333
57.1174
56.2883
54.7716
52.6708
50.1366
47.3361
44.3241
41.1198
37.6421
33.8858
29.8071
25.228
20.1132
16.7963
43.438
43.653
45.2704
47.3704
49.2307
50.5406
51.3681
51.988
52.6562
53.6126
54.9122
56.1376
56.9339
57.276
56.6877
55.4746
54.3212
52.9531
51.4906
49.9995
48.6285
47.4273
46.414
45.4626
44.4271
43.295
42.0873
40.8098
39.014
37.1323
9.72685
12.3737
13.4783
14.1764
14.4623
14.3873
14.0249
13.4498
12.7179
11.8799
10.9685
10.0297
9.08091
8.17464
7.33238
6.5999
5.99639
5.61368
5.48638
5.47635
5.33003
4.88813
4.13488
3.16612
2.13719
1.20895
0.762077
0.145634
0.567518
0.605567
5.68158
6.41647
6.78689
7.04223
7.14015
7.07892
6.88491
6.58836
6.21977
5.8026
5.35857
4.90505
4.45959
4.03616
3.65694
3.33824
3.10404
3.00238
3.06508
3.19842
3.23654
3.08253
2.73319
2.24649
1.6834
1.10788
0.621073
0.310169
0.350751
0.2961
5.13114
5.57611
5.82255
5.95421
5.97554
5.89252
5.72066
5.4767
5.17763
4.8395
4.47935
4.11173
3.75143
3.41194
3.11091
2.86668
2.69768
2.64264
2.72476
2.86765
2.93529
2.84415
2.59387
2.20682
1.73718
1.24031
0.776143
0.427853
0.35073
0.292661
4.85465
5.17492
5.37752
5.48182
5.49415
5.42155
5.27527
5.06718
4.80929
4.51433
4.19701
3.87074
3.54909
3.24768
2.98344
2.77425
2.63585
2.60209
2.68219
2.80923
2.873
2.80246
2.58486
2.24729
1.82974
1.37304
0.925333
0.545944
0.36541
0.282866
4.58934
4.81125
4.99049
5.09811
5.12839
5.08485
4.97206
4.80007
4.57921
4.32109
4.03903
3.74555
3.45518
3.18389
2.94847
2.76796
2.65567
2.63948
2.71469
2.82074
2.86684
2.79504
2.59522
2.28812
1.90648
1.4827
1.0552
0.66409
0.422706
0.300354
4.26455
4.4035
4.57311
4.69887
4.7613
4.75771
4.68507
4.55235
4.36945
4.14809
3.90088
3.63997
3.37994
3.13796
2.93087
2.77882
2.69288
2.69361
2.76362
2.84732
2.87213
2.79018
2.59677
2.31187
1.95938
1.56611
1.16265
0.777849
0.505199
0.351823
3.89406
3.96054
4.11997
4.26775
4.3685
4.40778
4.38018
4.28949
4.14649
3.96356
3.75267
3.52601
3.29725
3.08565
2.90816
2.78582
2.72749
2.74427
2.80912
2.87114
2.87227
2.77845
2.58707
2.31616
1.98987
1.62573
1.24868
0.8817
0.597254
0.421643
3.48439
3.49348
3.6421
3.81117
3.95055
4.0328
4.05046
4.00403
3.90285
3.75943
3.58605
3.39516
3.19972
3.01948
2.87293
2.78161
2.75139
2.78302
2.84269
2.88472
2.86372
2.75716
2.56616
2.30669
2.00167
1.66501
1.31514
0.971441
0.688724
0.498148
3.04219
3.01315
3.15557
3.34434
3.51877
3.64138
3.70089
3.69863
3.63972
3.53642
3.40143
3.24674
3.08605
2.93803
2.82328
2.76366
2.76071
2.8057
2.85989
2.88401
2.84361
2.72574
2.53491
2.28639
1.99849
1.68737
1.36444
1.04577
0.772766
0.574251
2.58068
2.53656
2.68071
2.8883
3.09055
3.24683
3.34383
3.3806
3.36278
3.2989
3.20189
3.08329
2.95742
2.8425
2.7595
2.73125
2.75382
2.81006
2.85997
2.86689
2.80998
2.68424
2.49448
2.2569
1.98571
1.69649
1.40106
1.10565
0.84553
0.645563
2.19382
2.1285
2.26237
2.47232
2.6888
2.86651
2.99296
3.06189
3.07988
3.05301
2.99225
2.90857
2.81656
2.73461
2.68282
2.68451
2.72965
2.79446
2.83906
2.83199
2.76253
2.63163
2.44581
2.21956
1.9648
1.69517
1.42548
1.15201
0.906061
0.708533
1.88739
1.79072
1.90319
2.10644
2.32858
2.52071
2.66485
2.75533
2.80104
2.80596
2.77813
2.72701
2.66694
2.61649
2.59474
2.62377
2.6877
2.75865
2.79728
2.77932
2.70147
2.56879
2.39001
2.1756
1.9375
1.68932
1.43985
1.18627
0.954506
0.762115
1.66341
1.5259
1.60533
1.7912
2.01067
2.2106
2.36707
2.4742
2.53811
2.56577
2.56558
2.54327
2.51228
2.49098
2.49644
2.54941
2.62808
2.70259
2.73528
2.70962
2.62746
2.49655
2.32704
2.12613
1.90574
1.67849
1.44591
1.2101
0.991793
0.805874
1.52375
1.34246
1.37476
1.52879
1.73499
1.93623
2.10093
2.2198
2.29798
2.34222
2.36092
2.36222
2.35648
2.3609
2.38937
2.46226
2.55149
2.62719
2.65464
2.62436
2.54178
2.41606
2.2576
2.07283
1.87324
1.66276
1.44471
1.225
1.01922
0.840294
1.49328
1.26312
1.22684
1.3291
1.50576
1.6985
1.86639
1.99327
2.08181
2.13861
2.17198
2.1892
2.20349
2.22863
2.27594
2.36404
2.45977
2.53483
2.55826
2.52637
2.4468
2.32946
2.1845
2.01929
1.83868
1.64339
1.43889
1.23281
1.03827
0.866299
1.55962
1.30414
1.1866
1.21148
1.33589
1.5031
1.66504
1.79529
1.89075
1.95657
2.00089
2.03003
2.05763
2.0979
2.15937
2.25771
2.35632
2.4295
2.45043
2.41968
2.34627
2.24062
2.11292
1.96791
1.80291
1.62149
1.42926
1.2345
1.05022
0.885017
1.72558
1.45411
1.2709
1.20048
1.24763
1.36379
1.5033
1.62849
1.72629
1.79762
1.84957
1.88772
1.92456
1.97334
2.04436
2.14813
2.24666
2.31732
2.33755
2.3105
2.2465
2.15734
2.04835
1.91904
1.76783
1.59849
1.417
1.23209
1.05652
0.897497
2.01342
1.72845
1.49441
1.33076
1.26825
1.30488
1.39563
1.50016
1.59203
1.6642
1.72048
1.76499
1.80917
1.8619
1.93817
2.04337
2.13978
2.20791
2.22987
2.2096
2.16048
2.08694
1.9922
1.87607
1.73601
1.57641
1.40361
1.22706
1.05832
0.904804
2.42236
2.12263
1.85112
1.60936
1.43374
1.35551
1.36462
1.42491
1.49598
1.56148
1.61793
1.66648
1.71697
1.77455
1.85377
1.95731
2.05122
2.11755
2.1461
2.13622
2.09766
2.036
1.95216
1.84404
1.71117
1.55796
1.3911
1.22085
1.05727
0.90822
2.94607
2.62844
2.32499
2.02321
1.7479
1.54485
1.44116
1.42111
1.45303
1.50009
1.55062
1.60112
1.65845
1.7243
1.8112
1.91555
2.01023
2.07754
2.10987
2.10729
2.07577
2.01972
1.93772
1.82992
1.69851
1.54699
1.38248
1.21556
1.05514
0.908796
3.58555
3.2444
2.90704
2.55443
2.19902
1.88121
1.65111
1.52595
1.48735
1.49786
1.53685
1.58864
1.65521
1.73674
1.84106
1.9566
2.05712
2.12644
2.1606
2.16074
2.12969
2.07076
1.98332
1.86585
1.7196
1.55429
1.38265
1.21402
1.0537
0.90807
4.35671
3.98573
3.60868
3.20578
2.78297
2.36975
2.0199
1.77629
1.64616
1.60328
1.6192
1.67281
1.75799
1.86867
2.0106
2.15613
2.27284
2.34933
2.38347
2.37729
2.33181
2.25109
2.13735
1.9918
1.81782
1.62276
1.42077
1.23123
1.05943
0.908377
5.30818
4.90169
4.47933
4.02404
3.54081
3.05126
2.60261
2.24791
2.01865
1.91155
1.89981
1.96346
2.08879
2.2606
2.48337
2.69661
2.85338
2.94536
2.97448
2.9407
2.84665
2.70218
2.51708
2.29898
2.05606
1.79865
1.53961
1.29977
1.08923
0.917678
6.5593
6.11511
5.64807
5.14505
4.61364
4.07242
3.56015
3.12735
2.82057
2.6628
2.64214
2.75175
2.97561
3.28826
3.68956
4.05283
4.2963
4.41691
4.42048
4.30041
4.07317
3.76454
3.40353
3.01249
2.60902
2.20867
1.8256
1.47946
1.18488
0.957065
8.38856
7.91954
7.42744
6.90474
6.36404
5.82602
5.32367
4.89888
4.60283
4.47941
4.54584
4.82328
5.30181
5.94545
6.73711
7.40766
7.81578
7.97424
7.87771
7.52696
6.96775
6.26411
5.48886
4.69742
3.92514
3.19664
2.52712
1.93607
1.44155
1.08381
11.4684
11.0203
10.5624
10.0993
9.65279
9.25236
8.93312
8.72597
8.67091
8.83252
9.25824
10.0007
11.0602
12.3783
13.8796
15.0511
15.6868
15.8453
15.4874
14.6466
13.4133
11.9158
10.3031
8.68627
7.13318
5.68658
4.36412
3.1845
2.19239
1.50272
17.328
17.0297
16.7091
16.4591
16.3104
16.3128
16.5083
16.8953
17.488
18.3445
19.5406
21.1476
23.1544
25.4401
27.7919
29.4168
30.1647
30.1623
29.3455
27.7932
25.6395
23.0638
20.2623
17.3944
14.5595
11.8273
9.23913
6.78953
4.60764
3.10802
28.4474
28.4437
28.5366
28.7224
29.1393
29.8864
30.9038
32.1378
33.5793
35.2992
37.3829
39.8785
42.707
45.5797
48.0501
49.2214
49.4591
48.8578
47.4734
45.4221
42.8019
39.7533
36.3847
32.7574
28.8869
24.8152
20.6744
16.3705
12.1338
9.20773
43.6672
43.6819
44.6042
46.0133
47.5599
49.062
50.5265
52.006
53.6039
55.455
57.6236
60.0028
62.3011
63.8854
64.2606
62.9568
61.5224
59.7486
57.9003
55.9372
53.9927
52.118
50.246
48.2073
45.7965
42.8181
39.0421
34.5621
29.3739
25.7236
47.9737
48.606
50.3642
52.5618
54.5756
56.0903
57.0909
57.8514
58.6762
59.7546
61.0432
62.1773
62.7552
62.4806
60.8896
57.9512
55.5396
53.2094
51.2819
49.6959
48.5914
47.9388
47.6497
47.5044
47.2817
46.8716
46.2846
45.5173
44.3274
43.0795
13.3456
16.766
18.0128
18.6665
18.9448
18.8214
18.3503
17.6126
16.6707
15.5873
14.3966
13.1582
11.8876
10.6634
9.51633
8.53138
7.77916
7.57274
8.02401
8.6571
8.79509
8.19102
6.94808
5.31789
3.56575
1.96296
0.75819
0.150376
0.132156
0.583585
7.55703
8.39592
8.74854
8.92667
8.98583
8.89129
8.64621
8.27955
7.82311
7.30347
6.74631
6.16948
5.59854
5.04771
4.5555
4.1432
3.87834
3.9208
4.3546
4.87855
5.09607
4.88313
4.32765
3.56408
2.69195
1.76501
0.926436
0.374039
0.294704
0.265683
6.86208
7.29752
7.50594
7.59308
7.57325
7.44685
7.22109
6.90871
6.52809
6.09686
5.63512
5.15742
4.68613
4.23698
3.84097
3.52156
3.33134
3.40044
3.78454
4.24407
4.46921
4.3503
3.95394
3.38267
2.67419
1.89879
1.14795
0.547716
0.350012
0.274231
6.59035
6.84075
7.00763
7.08569
7.06643
6.9527
6.75186
6.4731
6.13121
5.74087
5.32023
4.88257
4.45035
4.04249
3.68877
3.41227
3.2609
3.34847
3.68812
4.07789
4.27737
4.18315
3.85259
3.35003
2.72968
2.03528
1.33574
0.70767
0.402375
0.282787
6.32991
6.4553
6.60352
6.69792
6.71002
6.63238
6.46682
6.22278
5.91519
5.55843
5.16962
4.76284
4.36186
3.98541
3.66494
3.42563
3.31339
3.42194
3.72764
4.05216
4.20383
4.10512
3.79707
3.33422
2.77285
2.13984
1.48675
0.862347
0.485642
0.314349
5.99308
6.02474
6.16158
6.28504
6.34171
6.31387
6.19333
5.99011
5.72064
5.39997
5.04531
4.67041
4.3013
3.95706
3.67086
3.47137
3.40311
3.53562
3.81074
4.0733
4.16975
4.05188
3.74826
3.31065
2.79017
2.21041
1.60411
1.00592
0.590511
0.3743
5.58159
5.53602
5.66225
5.81581
5.92174
5.94788
5.88005
5.72423
5.49898
5.21976
4.90502
4.56569
4.2314
3.92345
3.67605
3.52154
3.50289
3.65917
3.90534
4.10568
4.1476
4.00172
3.69558
3.27536
2.78435
2.25177
1.69199
1.13244
0.70412
0.453035
5.11332
4.99847
5.11353
5.29298
5.44656
5.52552
5.51496
5.41234
5.23632
5.00357
4.73395
4.43666
4.14116
3.87327
3.67011
3.56666
3.6005
3.77809
3.99466
4.13626
4.12408
3.94775
3.63623
3.22933
2.76422
2.27016
1.75551
1.23899
0.815528
0.540997
4.60155
4.42219
4.53037
4.73127
4.92674
5.0563
5.10152
5.05567
4.93297
4.75094
4.53035
4.28004
4.02779
3.80411
3.65011
3.60276
3.68926
3.88285
4.06772
4.15427
4.09169
3.88697
3.56986
3.17457
2.73291
2.27036
1.80232
1.32545
0.916575
0.62909
4.06013
3.83204
3.93343
4.15201
4.38111
4.55573
4.65295
4.66264
4.59497
4.46603
4.29742
4.09754
3.89283
3.71711
3.61604
3.62791
3.7638
3.96587
4.11796
4.15234
4.04552
3.81764
3.49684
3.11324
2.69415
2.26314
1.83242
1.39184
1.00256
0.710607
3.51543
3.27227
3.36183
3.5838
3.83469
4.04469
4.18792
4.24618
4.23262
4.15684
4.0412
3.8935
3.73888
3.61485
3.56892
3.64064
3.81869
4.02044
4.1382
4.12492
3.98247
3.73817
3.41778
3.0476
2.65144
2.25084
1.84712
1.43863
1.07082
0.781853
3.0484
2.77629
2.84283
3.05562
3.31526
3.54941
3.72722
3.82518
3.85863
3.83349
3.7693
3.67359
3.57012
3.49993
3.50982
3.63971
3.84826
4.04115
4.12396
4.07062
3.90162
3.64862
3.33397
2.98015
2.60965
2.23121
1.84715
1.46737
1.12142
0.840642
2.66286
2.35523
2.38871
2.58027
2.83644
3.08385
3.28511
3.4184
3.48973
3.5072
3.4902
3.444
3.39144
3.37569
3.43882
3.62103
3.85086
4.02524
4.07354
3.9897
3.80406
3.55049
3.24777
2.91456
2.56807
2.20535
1.83859
1.4814
1.15589
0.886074
2.35827
2.02195
2.01205
2.1696
2.40881
2.65787
2.8733
3.03383
3.13688
3.19096
3.21276
3.21113
3.20832
3.24357
3.3578
3.58284
3.81818
3.97201
3.98939
3.88506
3.69335
3.44746
3.16355
2.85563
2.52396
2.17467
1.82254
1.48204
1.17596
0.918667
2.15815
1.79791
1.72946
1.83899
2.04485
2.28143
2.50099
2.67836
2.80756
2.89239
2.94772
2.98214
3.02496
3.10759
3.26859
3.52441
3.75386
3.88505
3.87848
3.76413
3.57706
3.34712
3.09128
2.8004
2.47918
2.14057
1.80059
1.47475
1.1843
0.939814
2.07946
1.71181
1.56693
1.61038
1.76196
1.96764
2.17797
2.36131
2.50767
2.61732
2.70033
2.76612
2.84816
2.97362
3.17499
3.44879
3.66446
3.77395
3.7531
3.64029
3.46954
3.26758
3.02967
2.74855
2.43519
2.10447
1.77429
1.46108
1.183
0.951106
2.12995
1.76839
1.56342
1.51026
1.58299
1.73465
1.91683
2.09301
2.24624
2.37257
2.4785
2.57226
2.68645
2.85015
3.08449
3.36542
3.56403
3.65623
3.63379
3.53728
3.39477
3.20897
2.97887
2.70314
2.39411
2.0684
1.74556
1.44284
1.17599
0.954375
2.30811
1.94915
1.69707
1.55791
1.53289
1.60639
1.73552
1.88616
2.03388
2.16768
2.29116
2.40967
2.55512
2.74985
3.01134
3.29352
3.47708
3.56225
3.55694
3.48621
3.35633
3.17205
2.94491
2.66868
2.35949
2.03519
1.71684
1.42223
1.16485
0.952037
2.64936
2.28196
1.98742
1.76736
1.63682
1.60098
1.65708
1.75845
1.88448
2.01537
2.15085
2.29145
2.47178
2.69583
2.98221
3.26802
3.44722
3.54697
3.56385
3.49884
3.36045
3.18102
2.93767
2.65206
2.33704
2.00899
1.69156
1.40196
1.15168
0.946401
3.16471
2.77065
2.43173
2.13889
1.90654
1.75747
1.70468
1.73302
1.81958
1.93574
2.07842
2.24374
2.46033
2.7284
3.05331
3.35399
3.55716
3.66997
3.69478
3.61796
3.48136
3.29089
3.01716
2.6854
2.33675
1.99599
1.67464
1.38548
1.13908
0.939186
3.85095
3.41841
3.0301
2.67005
2.34688
2.08625
1.91799
1.85077
1.87362
1.96467
2.11386
2.31066
2.58025
2.91176
3.30717
3.6572
3.89845
4.0249
4.03407
3.94261
3.8004
3.55677
3.22327
2.83138
2.41816
2.02429
1.67492
1.37759
1.13037
0.932543
4.72951
4.24892
3.80538
3.38048
2.97829
2.62022
2.34232
2.17439
2.12365
2.17994
2.33949
2.58397
2.93635
3.37587
3.90062
4.35101
4.66111
4.78736
4.77921
4.67997
4.47013
4.1084
3.65225
3.15027
2.64269
2.1648
1.74387
1.40216
1.13414
0.929519
5.86615
5.33204
4.83104
4.34555
3.87809
3.44545
3.08205
2.82935
2.7162
2.74737
2.93962
3.27461
3.77411
4.40164
5.16464
5.79686
6.22652
6.34933
6.34539
6.19353
5.79092
5.19913
4.51012
3.79952
3.11726
2.4968
1.95632
1.52009
1.18612
0.947838
7.41838
6.8348
6.28497
5.75486
5.24821
4.78001
4.38161
4.09834
3.97408
4.03953
4.33542
4.85856
5.6341
6.59949
7.77979
8.70399
9.32817
9.4954
9.50415
9.09793
8.33069
7.32115
6.21555
5.12341
4.11264
3.21776
2.45119
1.82865
1.35754
1.0326
9.74536
9.13255
8.56363
8.03078
7.54225
7.11533
6.78246
6.59108
6.58993
6.84645
7.41319
8.31598
9.58913
11.1243
12.9427
14.2545
15.1358
15.4395
15.209
14.3807
13.0309
11.347
9.56575
7.83372
6.23599
4.82499
3.60584
2.59374
1.81482
1.28826
13.5646
13.0227
12.4913
12.0373
11.6772
11.4323
11.3429
11.4613
11.8437
12.5541
13.656
15.1997
17.2309
19.5494
22.1381
23.7448
24.7362
24.9444
24.3352
22.9782
20.9469
18.4371
15.7962
13.1846
10.6924
8.42008
6.36361
4.55336
3.0886
2.10562
20.1461
19.812
19.5116
19.2526
19.1795
19.305
19.7002
20.3893
21.4006
22.7938
24.6178
26.935
29.7963
32.8124
35.864
36.8066
36.9056
36.2376
35.1073
33.4659
31.3721
28.8654
25.8637
22.5771
19.1707
15.8742
12.6198
9.46614
6.70373
4.82121
30.7044
30.5686
30.7149
31.0779
31.4997
32.1287
33.0762
34.3235
35.8842
37.815
40.1418
42.9035
46.0809
48.9176
50.7503
49.0666
47.5751
45.849
44.2838
42.6416
40.9576
39.1438
37.1283
34.7859
31.9761
28.4513
24.4514
20.0262
15.7464
12.7756
42.4469
42.5958
43.4734
44.7139
46.0341
47.3139
48.5017
49.7665
51.2366
52.9779
54.9745
57.1472
59.3343
60.1576
59.4765
54.9512
51.8764
49.208
47.3197
45.8811
44.9629
44.3902
43.9763
43.45
42.5057
40.9566
38.6679
35.608
31.7062
28.8596
44.255
45.3007
47.0911
49.1555
51.0615
52.5886
53.7208
54.6519
55.6174
56.759
57.9934
59.0141
59.4975
58.4604
55.4864
49.425
45.6311
42.6262
40.686
39.4384
38.9718
39.2075
39.9621
40.8877
41.6961
42.2288
42.428
42.3121
41.8572
41.277
17.5938
21.7563
23.0576
23.5494
23.6838
23.4274
22.7899
21.8477
20.663
19.3014
17.7904
16.2001
14.5415
12.9274
11.4058
10.1268
9.29624
9.76654
11.7264
13.7299
14.3092
13.3325
11.3032
8.74847
6.024
3.45548
1.44787
0.149953
0.128756
0.537656
9.69691
10.5803
10.877
10.9493
10.9244
10.7705
10.4639
10.0215
9.47417
8.846
8.16566
7.44564
6.72382
6.00894
5.37097
4.82858
4.55067
4.96398
6.18683
7.38583
7.79679
7.40921
6.5366