/*--------------------------------*- C++ -*----------------------------------*\
| =========                 |                                                 |
| \\      /  F ield         | OpenFOAM: The Open Source CFD Toolbox           |
|  \\    /   O peration     | Version:  5.0                                   |
|   \\  /    A nd           | Web:      www.OpenFOAM.org                      |
|    \\/     M anipulation  |                                                 |
\*---------------------------------------------------------------------------*/
FoamFile
{
    version     2.0;
    format      ascii;
    class       volScalarField;
    location    "1950/air";
    object      k;
}
// * * * * * * * * * * * * * * * * * * * * * * * * * * * * * * * * * * * * * //

dimensions      [0 2 -2 0 0 0 0];

internalField   nonuniform List<scalar> 
243000
(
0.0760402
0.084724
0.0875194
0.0881865
0.0871221
0.0848369
0.0816375
0.0777996
0.0735477
0.0690997
0.0646171
0.0602281
0.0559455
0.0518498
0.0479766
0.0444276
0.0412666
0.0386428
0.0384429
0.0375154
0.0361356
0.0338787
0.0327074
0.0301098
0.0281626
0.0255626
0.0235288
0.0198361
0.0196248
0.0213741
0.114899
0.128587
0.131521
0.130848
0.127921
0.123516
0.118163
0.112251
0.10603
0.0997195
0.0934508
0.087333
0.0813772
0.0757243
0.0704496
0.0656616
0.0613992
0.0578901
0.0551165
0.0532242
0.0515168
0.049624
0.047121
0.0434627
0.0394055
0.0346657
0.0295234
0.0241366
0.0230063
0.0293809
0.133746
0.148663
0.152865
0.152509
0.149392
0.144496
0.138461
0.131734
0.124617
0.117379
0.110174
0.103138
0.0963081
0.0898672
0.0839119
0.0785666
0.0738587
0.0700251
0.0670544
0.0648049
0.0628009
0.0605376
0.0575442
0.0535092
0.0484987
0.0426138
0.0360337
0.0293005
0.0255973
0.0303799
0.142743
0.158707
0.164314
0.165078
0.162674
0.158193
0.152316
0.145533
0.138189
0.130598
0.122958
0.115458
0.108165
0.1013
0.0949909
0.0893825
0.0844937
0.0805529
0.0774563
0.0749864
0.0726917
0.0700976
0.0667275
0.0622667
0.056688
0.0500761
0.0425834
0.0349452
0.0297227
0.0305242
0.144484
0.160559
0.168511
0.171002
0.169887
0.166387
0.161198
0.154859
0.147748
0.140227
0.132537
0.124917
0.117476
0.110476
0.104063
0.0984127
0.0935329
0.0896276
0.0865037
0.083882
0.0813202
0.0783974
0.0746805
0.0698672
0.063893
0.0568176
0.0487802
0.0405324
0.0342196
0.0315701
0.141211
0.157381
0.167293
0.171875
0.172475
0.170305
0.166155
0.160594
0.154042
0.146907
0.139456
0.131981
0.124633
0.117721
0.111389
0.105865
0.101132
0.0973577
0.0942686
0.0915394
0.0887452
0.085518
0.0814898
0.0763905
0.0701372
0.0627681
0.0544091
0.0457444
0.0386645
0.0338505
0.133956
0.150819
0.162524
0.169057
0.171509
0.170938
0.167989
0.163394
0.157653
0.151142
0.144152
0.137027
0.129956
0.1233
0.11719
0.111916
0.107427
0.103844
0.100831
0.0980307
0.0950428
0.0915504
0.0872537
0.0819257
0.075481
0.0679308
0.0593844
0.0504578
0.0428294
0.0367675
0.123653
0.141614
0.154959
0.163416
0.167772
0.168885
0.167409
0.163982
0.15908
0.153332
0.146979
0.140364
0.133715
0.127428
0.121655
0.116715
0.11254
0.109185
0.106274
0.103437
0.100297
0.0965877
0.0920694
0.0865652
0.0799952
0.0723432
0.0637132
0.0546872
0.0466707
0.0397858
0.111566
0.130577
0.145423
0.15568
0.161909
0.164712
0.164765
0.16264
0.158899
0.153974
0.148259
0.142259
0.136132
0.130303
0.124945
0.120398
0.116578
0.113472
0.110683
0.10784
0.104593
0.100717
0.0960295
0.0903979
0.0837548
0.0760731
0.0673902
0.0583603
0.050074
0.042736
0.100273
0.119313
0.134946
0.146576
0.154491
0.15894
0.160522
0.159776
0.157198
0.153261
0.148398
0.14297
0.137413
0.132101
0.127207
0.123087
0.119641
0.116794
0.114141
0.11132
0.108008
0.10402
0.0992161
0.0935058
0.0868438
0.0791504
0.0704223
0.061515
0.0530734
0.0453104
0.0903204
0.108321
0.124562
0.137202
0.14618
0.152046
0.155076
0.155699
0.15433
0.15142
0.147399
0.142739
0.13777
0.132975
0.128571
0.124891
0.121819
0.119234
0.116726
0.113952
0.110619
0.10657
0.101706
0.0959711
0.0893163
0.0816115
0.0728757
0.0641869
0.0556944
0.0476418
0.0827689
0.0978274
0.11414
0.127738
0.137856
0.144732
0.148841
0.150701
0.150529
0.148665
0.145538
0.141621
0.137299
0.13308
0.129158
0.125911
0.1232
0.120874
0.118516
0.115812
0.112499
0.10844
0.103578
0.0978575
0.0912072
0.083516
0.0749619
0.0664737
0.0579759
0.0497224
0.0790134
0.0885935
0.103789
0.118059
0.129336
0.137341
0.142442
0.145139
0.146025
0.145185
0.14296
0.139815
0.136148
0.132494
0.129065
0.126237
0.123871
0.121786
0.119583
0.116972
0.11372
0.109712
0.104881
0.0991843
0.0925628
0.0849129
0.0767044
0.0684221
0.0599491
0.0515462
0.0803941
0.0822026
0.0940918
0.108229
0.120515
0.129729
0.135933
0.13956
0.14117
0.141186
0.139816
0.137441
0.134432
0.131336
0.128387
0.125957
0.123896
0.122046
0.120007
0.117518
0.11435
0.1104
0.105622
0.0999884
0.0934257
0.0858865
0.0780903
0.0700451
0.06163
0.0531378
0.0874521
0.0808093
0.0864791
0.0987298
0.111448
0.12181
0.129205
0.133861
0.136292
0.136963
0.136279
0.134619
0.132253
0.129698
0.127209
0.125149
0.123377
0.121737
0.119841
0.117446
0.114369
0.110513
0.105827
0.10029
0.0938364
0.0866571
0.0791951
0.0713762
0.0630359
0.0545084
0.0992179
0.0865828
0.0834206
0.0908331
0.102545
0.113631
0.122194
0.127964
0.13131
0.132706
0.132602
0.131488
0.129708
0.127667
0.12561
0.123893
0.122383
0.120936
0.119194
0.11693
0.113953
0.110194
0.105602
0.100164
0.0938825
0.0871594
0.0800299
0.0724339
0.0641788
0.0556704
0.11433
0.0991085
0.08779
0.0869138
0.0949163
0.105546
0.114951
0.121829
0.126168
0.128366
0.128897
0.128249
0.126911
0.125329
0.123667
0.12226
0.120989
0.119721
0.118129
0.116004
0.113168
0.109523
0.105046
0.0997396
0.0938064
0.0874523
0.0806244
0.0732383
0.0650726
0.0566172
0.130753
0.115425
0.0997276
0.0898718
0.0906374
0.0984902
0.107783
0.115513
0.120844
0.123902
0.125121
0.125002
0.124029
0.12278
0.121456
0.120326
0.11927
0.118168
0.116722
0.11474
0.112057
0.108566
0.10423
0.0991822
0.0936061
0.0875666
0.081007
0.0738116
0.0657322
0.0573772
0.147293
0.132824
0.116269
0.100514
0.0922828
0.0941777
0.101442
0.10927
0.115392
0.119307
0.121253
0.121706
0.121154
0.12015
0.119067
0.118166
0.117299
0.11635
0.115049
0.113215
0.110693
0.107378
0.103271
0.098563
0.0933038
0.087532
0.0812065
0.074179
0.0661764
0.0579627
0.164165
0.150597
0.134516
0.11656
0.101185
0.0947045
0.0972629
0.103676
0.110014
0.114629
0.117293
0.118341
0.118254
0.117552
0.116636
0.115872
0.115155
0.114343
0.113185
0.111502
0.109151
0.106072
0.102295
0.0978977
0.0929229
0.0873912
0.0812545
0.0743683
0.0664276
0.058359
0.181178
0.168006
0.152765
0.13477
0.115752
0.101515
0.0968395
0.0997057
0.105133
0.110024
0.113284
0.114915
0.115312
0.114958
0.11426
0.113583
0.112933
0.112231
0.111207
0.109681
0.107573
0.104792
0.10132
0.097209
0.0924928
0.0871765
0.0811969
0.0744122
0.0665121
0.0586395
0.198154
0.185508
0.170779
0.153258
0.133133
0.113801
0.101487
0.0985453
0.10144
0.105798
0.109347
0.11147
0.112334
0.112359
0.111923
0.111384
0.110826
0.110197
0.109299
0.107957
0.106074
0.10356
0.100374
0.0965348
0.0920587
0.0869343
0.0810854
0.0743652
0.0664725
0.058848
0.215015
0.2026
0.18821
0.17116
0.151063
0.129333
0.110973
0.101217
0.0997668
0.102431
0.105709
0.108108
0.109375
0.109772
0.109632
0.109278
0.108842
0.108306
0.10753
0.106358
0.104686
0.102421
0.0995094
0.0959315
0.0916856
0.0867374
0.0809894
0.0742929
0.0663696
0.0590607
0.231594
0.21918
0.204916
0.18819
0.168429
0.145951
0.123869
0.10787
0.100906
0.100535
0.102745
0.105037
0.106559
0.107288
0.107457
0.107329
0.107047
0.106629
0.105979
0.104969
0.103494
0.10146
0.0988095
0.0954822
0.0914534
0.0866632
0.0809934
0.0742756
0.0662797
0.0596542
0.247048
0.234739
0.220655
0.20422
0.184882
0.162479
0.138639
0.117997
0.105348
0.100859
0.101049
0.102697
0.104222
0.105198
0.105673
0.105812
0.105726
0.105453
0.104937
0.104074
0.102768
0.10093
0.0984773
0.0953533
0.0915138
0.0868808
0.0812793
0.0744888
0.066347
0.0610487
0.261968
0.249786
0.235899
0.219794
0.200953
0.17903
0.154733
0.13128
0.113732
0.104584
0.101845
0.102184
0.103399
0.104528
0.105335
0.105807
0.105979
0.105884
0.105487
0.104716
0.103497
0.101759
0.099432
0.0964401
0.0927082
0.0881183
0.0824487
0.0753986
0.0669354
0.0634705
0.277873
0.266035
0.252531
0.23692
0.218763
0.197706
0.173934
0.149437
0.128488
0.114894
0.108687
0.107166
0.107788
0.109081
0.110379
0.111342
0.111851
0.111919
0.111519
0.11062
0.109202
0.107247
0.104717
0.101537
0.0975948
0.0927281
0.086632
0.0788724
0.0694978
0.0680738
0.29904
0.287947
0.275289
0.260818
0.244275
0.225349
0.203901
0.180867
0.159212
0.14299
0.134014
0.130889
0.131167
0.13304
0.135228
0.136885
0.137653
0.137562
0.136593
0.134815
0.132329
0.129235
0.125581
0.121284
0.116128
0.109932
0.102317
0.0925415
0.0804951
0.0804572
0.34276
0.333645
0.323997
0.313764
0.302667
0.290278
0.275972
0.259829
0.24307
0.229237
0.221055
0.218389
0.219408
0.222592
0.225863
0.227956
0.228281
0.227106
0.224528
0.220704
0.215935
0.210468
0.204498
0.197844
0.189639
0.180226
0.169324
0.155564
0.138605
0.135933
0.507012
0.504234
0.505048
0.505693
0.505423
0.503808
0.500236
0.494794
0.486035
0.4777
0.471926
0.468871
0.468057
0.469928
0.471876
0.473116
0.472539
0.471791
0.47065
0.469489
0.468231
0.467181
0.466259
0.465031
0.458959
0.452098
0.444253
0.432814
0.417204
0.408797
0.111867
0.129048
0.13521
0.137077
0.135877
0.132478
0.127549
0.12164
0.115112
0.108265
0.101275
0.0943619
0.0876054
0.0812494
0.0753806
0.0702183
0.065843
0.0625376
0.0603094
0.0587665
0.0569395
0.0538973
0.0490741
0.0423951
0.0343596
0.0264429
0.02416
0.0211972
0.0215927
0.0229409
0.174662
0.199992
0.205507
0.202912
0.195853
0.186394
0.175741
0.164613
0.15342
0.142493
0.131963
0.122017
0.112638
0.104083
0.09641
0.0898311
0.0842677
0.0802007
0.0776999
0.076379
0.0751192
0.0726928
0.0680281
0.0607327
0.0512302
0.0405513
0.0320849
0.0289304
0.0327159
0.0331542
0.206835
0.236276
0.245547
0.244813
0.238543
0.229011
0.217638
0.205297
0.192537
0.179841
0.167438
0.155614
0.144397
0.134164
0.125055
0.117338
0.110861
0.106125
0.103024
0.101074
0.09913
0.0959374
0.0902985
0.0816749
0.0703641
0.0572769
0.0444068
0.0351191
0.0357943
0.0356689
0.220923
0.252153
0.263927
0.265967
0.261998
0.254234
0.244013
0.232267
0.219635
0.206703
0.193798
0.181311
0.169353
0.158409
0.148735
0.140633
0.133903
0.128971
0.125498
0.122915
0.120128
0.116005
0.109402
0.0997362
0.0872096
0.0725349
0.0571002
0.0432905
0.0370712
0.0348615
0.221799
0.251057
0.266862
0.273044
0.272285
0.267199
0.259039
0.248856
0.237282
0.225035
0.212497
0.200155
0.188212
0.177258
0.167641
0.159697
0.153166
0.148352
0.144703
0.141577
0.137972
0.132938
0.12548
0.115053
0.101803
0.0862749
0.0694977
0.0530168
0.0422669
0.0366948
0.215502
0.242364
0.260712
0.270222
0.273152
0.271167
0.265483
0.257473
0.247494
0.236565
0.224987
0.213366
0.201987
0.191531
0.182408
0.175005
0.168982
0.164498
0.160806
0.15723
0.15289
0.147033
0.138858
0.127907
0.114283
0.0984046
0.0810765
0.0633314
0.0500198
0.0421864
0.203339
0.228115
0.24791
0.26055
0.267053
0.268541
0.265808
0.259803
0.251671
0.242623
0.232422
0.221958
0.211546
0.201967
0.193628
0.187042
0.181739
0.177718
0.174082
0.170147
0.165184
0.158622
0.14987
0.138587
0.124856
0.108973
0.0916003
0.0735067
0.0588666
0.0492419
0.186348
0.208688
0.230053
0.245814
0.255878
0.260534
0.260576
0.257326
0.251806
0.24434
0.235671
0.226736
0.217586
0.209131
0.2018
0.196209
0.191755
0.18828
0.184773
0.180584
0.175121
0.168001
0.158815
0.147362
0.133723
0.118081
0.100995
0.0831237
0.0679117
0.0567467
0.164419
0.185553
0.208711
0.227509
0.241023
0.248525
0.251488
0.25118
0.248115
0.242779
0.236072
0.228433
0.2207
0.213507
0.207335
0.202839
0.199301
0.196411
0.193097
0.188757
0.182938
0.175412
0.165948
0.154483
0.14109
0.125857
0.109301
0.0919909
0.0766486
0.0642041
0.143671
0.162772
0.186377
0.207292
0.223845
0.233953
0.239894
0.242356
0.241828
0.238709
0.23384
0.227822
0.221424
0.215526
0.210591
0.207219
0.204608
0.202314
0.199242
0.194855
0.188824
0.181062
0.171491
0.160176
0.147158
0.132494
0.116559
0.100022
0.0848264
0.0713112
0.127422
0.142617
0.165009
0.187494
0.205958
0.218139
0.226783
0.23176
0.233577
0.2326
0.229532
0.225139
0.220158
0.215628
0.211883
0.209599
0.207886
0.206169
0.20338
0.199048
0.192967
0.185152
0.175659
0.164661
0.152111
0.137997
0.12295
0.107112
0.0921646
0.0779255
0.115872
0.125521
0.1452
0.16796
0.187994
0.202577
0.213223
0.220199
0.223998
0.224921
0.223619
0.220826
0.217292
0.214038
0.211473
0.210212
0.209325
0.208149
0.205669
0.201492
0.195543
0.1879
0.178695
0.168035
0.155934
0.14246
0.128368
0.113264
0.0985522
0.0839053
0.109242
0.112322
0.127683
0.149123
0.170068
0.186942
0.199677
0.208495
0.213704
0.216225
0.216543
0.215263
0.213111
0.211097
0.209617
0.209278
0.209105
0.20842
0.206276
0.20236
0.196626
0.189268
0.180436
0.170254
0.158726
0.14611
0.132836
0.118442
0.104001
0.0890757
0.109931
0.104554
0.113663
0.131708
0.152425
0.171249
0.186025
0.196549
0.20334
0.207095
0.208732
0.208808
0.207922
0.207044
0.206553
0.207002
0.207451
0.207179
0.205373
0.201736
0.196201
0.189135
0.180818
0.171357
0.160581
0.149057
0.136476
0.12272
0.108541
0.0934228
0.117393
0.104987
0.105901
0.118076
0.136116
0.155751
0.172298
0.184426
0.192716
0.197903
0.200666
0.201806
0.202018
0.202135
0.202489
0.203588
0.204559
0.204656
0.20318
0.199919
0.194852
0.188154
0.180315
0.171476
0.161757
0.15115
0.139301
0.126149
0.112215
0.0969551
0.132144
0.114057
0.105787
0.110457
0.12363
0.141445
0.158758
0.17227
0.181986
0.188528
0.192546
0.194634
0.195701
0.196619
0.197651
0.199262
0.200645
0.201072
0.199926
0.197074
0.192529
0.186481
0.179217
0.17111
0.162432
0.152569
0.141388
0.128792
0.115079
0.0997226
0.154283
0.132565
0.1165
0.110592
0.116784
0.129889
0.146078
0.160388
0.171328
0.179121
0.184325
0.187472
0.189286
0.190771
0.192303
0.194278
0.195963
0.196677
0.195852
0.19344
0.189466
0.184174
0.177717
0.170549
0.162554
0.153405
0.142825
0.130722
0.117191
0.101752
0.183311
0.159665
0.13822
0.122632
0.117688
0.123675
0.135873
0.149511
0.161082
0.169886
0.176154
0.180295
0.182961
0.184894
0.186748
0.188937
0.19082
0.191774
0.191263
0.189322
0.185995
0.18157
0.176141
0.169792
0.162392
0.153814
0.143729
0.132035
0.118626
0.103101
0.218319
0.193753
0.16926
0.146384
0.130423
0.125467
0.130474
0.140938
0.151911
0.161174
0.168253
0.173268
0.176739
0.17927
0.181379
0.183627
0.185624
0.186782
0.186593
0.185194
0.18265
0.179101
0.174573
0.168955
0.162115
0.153964
0.144245
0.132856
0.11949
0.10388
0.258262
0.233273
0.207077
0.179647
0.154689
0.138072
0.132641
0.136634
0.144952
0.153598
0.16099
0.166643
0.170823
0.173946
0.176504
0.178914
0.181004
0.182361
0.182566
0.181691
0.179798
0.176995
0.173262
0.168266
0.161894
0.154045
0.144556
0.133337
0.119902
0.104092
0.301893
0.276704
0.249409
0.219196
0.188096
0.161304
0.144473
0.138725
0.141668
0.148133
0.154974
0.160843
0.165556
0.169259
0.172357
0.175139
0.17747
0.179068
0.179615
0.179164
0.17779
0.175672
0.172538
0.167986
0.161942
0.154323
0.144911
0.133677
0.120009
0.103901
0.347917
0.322678
0.294524
0.262414
0.227339
0.19306
0.165714
0.149223
0.143972
0.146041
0.15119
0.15662
0.161606
0.165865
0.169606
0.172919
0.175612
0.177465
0.178317
0.178258
0.177355
0.175665
0.173034
0.16893
0.16309
0.15537
0.145734
0.13418
0.120008
0.103472
0.395268
0.370051
0.341216
0.307696
0.270007
0.23075
0.195213
0.168637
0.153964
0.14947
0.15106
0.155416
0.160359
0.165156
0.169717
0.17379
0.177001
0.179197
0.180328
0.180557
0.179961
0.178585
0.176166
0.17227
0.166479
0.158452
0.147949
0.13543
0.120228
0.102999
0.443506
0.418497
0.389303
0.354912
0.315685
0.27348
0.232435
0.197703
0.17392
0.161878
0.158588
0.160568
0.165147
0.170591
0.176387
0.181615
0.185564
0.188255
0.189598
0.189803
0.189018
0.187272
0.184421
0.180099
0.173816
0.165079
0.153303
0.138721
0.121381
0.102826
0.493992
0.469801
0.441076
0.406914
0.367646
0.324678
0.28103
0.241022
0.21012
0.190965
0.182382
0.181382
0.185531
0.192242
0.200334
0.207647
0.212828
0.215975
0.217071
0.216256
0.213817
0.210061
0.205088
0.198664
0.19029
0.179368
0.165006
0.146908
0.125363
0.104142
0.553244
0.531386
0.505089
0.473594
0.437231
0.397046
0.355097
0.314669
0.281133
0.258144
0.24626
0.2439
0.249443
0.259945
0.273085
0.28458
0.291799
0.295018
0.294217
0.289493
0.281648
0.271571
0.259928
0.246812
0.231854
0.214395
0.193277
0.167492
0.137476
0.110533
0.641445
0.625173
0.605311
0.581152
0.553121
0.522158
0.489388
0.457227
0.42977
0.410886
0.40235
0.404622
0.416938
0.436032
0.457967
0.475748
0.485477
0.487878
0.482425
0.469507
0.450501
0.42722
0.401164
0.372913
0.342338
0.308777
0.270759
0.226462
0.176219
0.135129
0.808303
0.800832
0.79148
0.779369
0.765574
0.751297
0.736493
0.721033
0.707698
0.700112
0.701172
0.713291
0.734639
0.761909
0.789532
0.810246
0.820583
0.821383
0.811182
0.790822
0.761697
0.725946
0.685374
0.64025
0.590031
0.533833
0.469618
0.393368
0.305881
0.240284
1.05182
1.05068
1.05682
1.0643
1.07132
1.07799
1.07894
1.07593
1.07145
1.06928
1.07451
1.08755
1.10525
1.12521
1.14116
1.15017
1.15239
1.14744
1.13477
1.11535
1.09041
1.06109
1.02801
0.989829
0.944438
0.89015
0.823676
0.739051
0.633913
0.560848
1.15578
1.15864
1.18002
1.20368
1.21932
1.22504
1.22218
1.21487
1.20755
1.20503
1.20834
1.21325
1.21627
1.21741
1.2104
1.19864
1.18801
1.17583
1.16314
1.15071
1.14002
1.13157
1.12455
1.11763
1.1084
1.09606
1.07921
1.05699
1.02498
0.993391
0.148171
0.169607
0.175167
0.176872
0.175164
0.170784
0.164499
0.156975
0.148658
0.139922
0.130967
0.122084
0.113339
0.105094
0.0974775
0.0908729
0.0854798
0.0822483
0.0816551
0.0824203
0.081996
0.0785754
0.0714926
0.0609773
0.0478917
0.0334735
0.0242454
0.0219622
0.0216858
0.0232804
0.23578
0.268282
0.276422
0.273767
0.265074
0.253118
0.239502
0.225232
0.210768
0.196474
0.182461
0.168972
0.155936
0.143776
0.13261
0.122854
0.114679
0.110098
0.109969
0.112724
0.114889
0.113611
0.107003
0.0948358
0.0781801
0.0589271
0.0402759
0.0314623
0.032868
0.0323921
0.283923
0.320855
0.333796
0.333655
0.325936
0.313775
0.299077
0.283081
0.266403
0.249557
0.232793
0.216484
0.200664
0.185908
0.172511
0.160932
0.151301
0.145825
0.145134
0.147498
0.149346
0.147646
0.140101
0.126217
0.106855
0.0837966
0.0599835
0.0417058
0.0380208
0.0374118
0.312445
0.347929
0.363206
0.366064
0.360676
0.350249
0.33655
0.320885
0.30399
0.286493
0.268776
0.251326
0.234311
0.218435
0.204191
0.192045
0.182052
0.176257
0.174904
0.176255
0.177011
0.174314
0.165915
0.151099
0.130439
0.105447
0.078671
0.0542263
0.0422835
0.0384164
0.325281
0.356706
0.373975
0.380187
0.377874
0.370245
0.358647
0.344473
0.328489
0.311499
0.293962
0.276473
0.259324
0.243354
0.229191
0.217318
0.207636
0.201871
0.199849
0.19995
0.199282
0.195357
0.186148
0.170851
0.149794
0.124148
0.0960506
0.0682371
0.0501201
0.0415817
0.325472
0.351517
0.370112
0.379876
0.381907
0.377878
0.369071
0.357221
0.342886
0.327249
0.310697
0.293977
0.277484
0.262188
0.248768
0.23777
0.228853
0.22334
0.220689
0.219453
0.217245
0.212009
0.202036
0.18652
0.165602
0.140129
0.111844
0.0826793
0.0607264
0.0484374
0.319138
0.339791
0.357901
0.370136
0.375925
0.375933
0.370733
0.361334
0.34906
0.335524
0.320549
0.305241
0.290011
0.275986
0.263803
0.254142
0.246316
0.241197
0.237983
0.235435
0.231697
0.225155
0.214464
0.198898
0.178443
0.153671
0.125973
0.0967791
0.0727203
0.0575275
0.307086
0.321015
0.338107
0.352525
0.362017
0.365959
0.364625
0.358662
0.349613
0.337916
0.324639
0.311308
0.297799
0.285468
0.274957
0.266964
0.260449
0.255823
0.252124
0.248368
0.243187
0.235426
0.22409
0.208591
0.188802
0.165087
0.138442
0.110067
0.08504
0.0675838
0.2863
0.29581
0.312326
0.328927
0.342005
0.349836
0.352386
0.350121
0.344145
0.335271
0.324803
0.313128
0.301569
0.291265
0.28274
0.276638
0.271565
0.26749
0.263406
0.25859
0.252126
0.243294
0.231433
0.2161
0.197161
0.17453
0.149114
0.121982
0.096995
0.0777642
0.259062
0.265765
0.282382
0.30132
0.317702
0.329231
0.33551
0.336926
0.334288
0.328452
0.320589
0.311353
0.30212
0.293915
0.287573
0.28348
0.279896
0.27641
0.272048
0.266355
0.258829
0.249135
0.236919
0.22191
0.203628
0.182127
0.158324
0.132489
0.10793
0.0875155
0.233262
0.236469
0.252096
0.272112
0.291088
0.305784
0.31553
0.320305
0.321003
0.318279
0.313208
0.306628
0.299748
0.293973
0.289813
0.287745
0.285632
0.282748
0.278228
0.271868
0.263556
0.253268
0.240968
0.226117
0.208486
0.188168
0.16598
0.14154
0.117678
0.0966572
0.210945
0.209334
0.22277
0.242976
0.263819
0.281264
0.293936
0.301595
0.305277
0.30557
0.30332
0.299422
0.295051
0.291657
0.289744
0.289646
0.288931
0.28665
0.282094
0.2753
0.26656
0.256003
0.243525
0.228942
0.212035
0.19313
0.172217
0.14908
0.126012
0.104785
0.193625
0.185755
0.195761
0.214959
0.236773
0.256385
0.271625
0.282031
0.288281
0.291142
0.291569
0.290279
0.288404
0.287388
0.287638
0.289374
0.289941
0.288249
0.283829
0.276886
0.267765
0.256957
0.244643
0.230568
0.214526
0.197023
0.177204
0.155225
0.132927
0.111705
0.181978
0.167923
0.172928
0.189386
0.210863
0.231858
0.24925
0.262059
0.270723
0.275958
0.278626
0.279722
0.280235
0.281464
0.283695
0.287116
0.288859
0.287739
0.28346
0.276412
0.267229
0.256511
0.244512
0.231224
0.21646
0.199896
0.181063
0.160099
0.138506
0.117399
0.180273
0.159343
0.157
0.168318
0.187467
0.208555
0.227419
0.24224
0.253046
0.260437
0.265244
0.268321
0.270935
0.274167
0.278183
0.283092
0.285918
0.28535
0.281447
0.274686
0.265693
0.255284
0.243832
0.231407
0.217697
0.201925
0.183923
0.163827
0.142851
0.121907
0.187319
0.162737
0.151318
0.154664
0.168789
0.187863
0.206964
0.223157
0.235739
0.245019
0.251738
0.256641
0.260962
0.265854
0.271416
0.277581
0.281377
0.281409
0.277971
0.271716
0.26332
0.253534
0.242927
0.231365
0.218334
0.203235
0.185911
0.166534
0.146077
0.12531
0.203825
0.176725
0.158234
0.15175
0.157951
0.171945
0.189216
0.205626
0.219361
0.230149
0.238505
0.245032
0.250837
0.256958
0.263772
0.270952
0.275583
0.276301
0.273461
0.267879
0.260358
0.251681
0.24205
0.231086
0.218551
0.203968
0.18716
0.168341
0.148296
0.127691
0.231845
0.202919
0.17894
0.16283
0.157531
0.163771
0.176219
0.190896
0.204684
0.216362
0.22598
0.233873
0.240991
0.248029
0.255789
0.263739
0.269081
0.270567
0.268499
0.263839
0.257595
0.250039
0.241155
0.230723
0.218529
0.204288
0.187821
0.169388
0.149632
0.129152
0.270259
0.239972
0.21213
0.188166
0.171805
0.166152
0.170651
0.180786
0.19284
0.204398
0.214717
0.223642
0.23187
0.23984
0.248291
0.256751
0.26272
0.265064
0.264091
0.260633
0.255422
0.248786
0.240519
0.230472
0.218485
0.204387
0.18806
0.169837
0.150226
0.129803
0.316937
0.285521
0.254852
0.225172
0.199367
0.18174
0.174822
0.177352
0.185401
0.195313
0.205519
0.215013
0.224169
0.233102
0.242358
0.251285
0.257931
0.261243
0.261251
0.258806
0.254458
0.248387
0.240474
0.230695
0.218749
0.204556
0.188126
0.169899
0.15022
0.129732
0.369623
0.337065
0.304043
0.270162
0.237304
0.209325
0.19063
0.182844
0.18399
0.190608
0.199646
0.209123
0.219042
0.228966
0.239263
0.248957
0.256359
0.260455
0.261409
0.259832
0.256222
0.250718
0.243077
0.23298
0.220303
0.205456
0.188491
0.169911
0.149982
0.12926
0.426273
0.392535
0.357403
0.320267
0.282349
0.246595
0.217596
0.199061
0.191503
0.192414
0.198859
0.207874
0.21834
0.22954
0.241376
0.25234
0.260664
0.265508
0.267255
0.266318
0.262989
0.257436
0.249506
0.238835
0.225112
0.20849
0.19005
0.170409
0.149753
0.128545
0.485634
0.45086
0.413989
0.37442
0.333058
0.292085
0.255465
0.227579
0.21101
0.205165
0.207524
0.215275
0.2264
0.239406
0.253745
0.266843
0.276404
0.282151
0.28443
0.28352
0.279508
0.272725
0.26323
0.250814
0.235241
0.216372
0.194969
0.172672
0.150102
0.1279
0.548217
0.513017
0.475298
0.434541
0.391517
0.347919
0.306922
0.272606
0.248628
0.236363
0.234278
0.240562
0.252927
0.268974
0.287941
0.304653
0.316276
0.322969
0.325169
0.322791
0.316078
0.305677
0.292099
0.275476
0.255774
0.232972
0.207109
0.180021
0.152943
0.128
0.618396
0.584331
0.547678
0.507994
0.465969
0.423035
0.381709
0.345424
0.318061
0.302175
0.297652
0.304248
0.320104
0.34212
0.368952
0.391483
0.406061
0.413425
0.413987
0.407272
0.394098
0.375685
0.353361
0.327895
0.299564
0.268498
0.234669
0.198782
0.163673
0.132694
0.709075
0.67919
0.646974
0.612093
0.575168
0.537567
0.501436
0.469617
0.445584
0.432178
0.430483
0.442214
0.465656
0.497356
0.534604
0.563959
0.581144
0.588044
0.584496
0.57018
0.546402
0.515044
0.478415
0.438012
0.394491
0.348128
0.298647
0.246398
0.194162
0.151169
0.847981
0.82712
0.803539
0.778025
0.751052
0.724278
0.699463
0.678794
0.664795
0.659901
0.666817
0.687447
0.720238
0.761235
0.805607
0.837299
0.853575
0.857537
0.848415
0.826439
0.793085
0.750274
0.700207
0.644377
0.583281
0.51689
0.444512
0.364953
0.282343
0.215809
1.06797
1.05871
1.04877
1.0363
1.02236
1.00886
0.996855
0.987652
0.983094
0.985857
0.999356
1.02478
1.06024
1.10004
1.13686
1.1562
1.16241
1.15821
1.1437
1.12007
1.08822
1.04899
1.00286
0.949043
0.885826
0.811285
0.724509
0.621274
0.505817
0.416126
1.31282
1.30988
1.31748
1.32682
1.33089
1.32848
1.32198
1.31421
1.30884
1.30915
1.31834
1.33542
1.35659
1.37291
1.37738
1.36278
1.34653
1.32739
1.3084
1.28898
1.27119
1.25468
1.23832
1.21842
1.19061
1.14964
1.08913
1.00744
0.903421
0.826081
1.35209
1.3622
1.38487
1.40809
1.42303
1.42742
1.4214
1.41014
1.39998
1.39504
1.39574
1.39784
1.39703
1.38847
1.36628
1.32905
1.29857
1.2706
1.24925
1.23397
1.22678
1.22671
1.23283
1.24108
1.24735
1.24815
1.24284
1.23044
1.20745
1.18616
0.182953
0.207681
0.212528
0.212483
0.209707
0.204281
0.196785
0.187889
0.178053
0.167697
0.157001
0.146307
0.13563
0.125467
0.115981
0.107834
0.101677
0.100414
0.105208
0.111845
0.114499
0.110856
0.101052
0.0861655
0.067375
0.0462547
0.0250965
0.0226972
0.0215315
0.0227053
0.294756
0.332131
0.338909
0.335745
0.32592
0.312226
0.296533
0.279913
0.262872
0.245755
0.228586
0.211631
0.194721
0.178547
0.163358
0.150088
0.140018
0.138962
0.148035
0.16113
0.169721
0.169674
0.159639
0.140708
0.114688
0.0840672
0.0531995
0.0346061
0.0303263
0.0299066
0.35877
0.399945
0.412877
0.412849
0.404219
0.390367
0.373403
0.354603
0.334668
0.314121
0.293192
0.272264
0.251369
0.231412
0.212988
0.197068
0.185203
0.183741
0.193084
0.206692
0.21578
0.21593
0.205056
0.183916
0.154191
0.117996
0.0800262
0.0488048
0.0375159
0.0363578
0.400355
0.437925
0.454505
0.457715
0.451675
0.439648
0.423549
0.404706
0.384014
0.362134
0.339517
0.31663
0.293765
0.271968
0.252199
0.235364
0.223053
0.221274
0.229596
0.241684
0.249508
0.248868
0.237422
0.215635
0.184658
0.146212
0.104556
0.0652102
0.0447903
0.0391732
0.425439
0.457529
0.475057
0.481345
0.478719
0.469611
0.455532
0.437843
0.417665
0.395764
0.372795
0.349295
0.325802
0.3035
0.283604
0.266972
0.25503
0.253035
0.259742
0.269353
0.275036
0.272992
0.260996
0.239209
0.208345
0.169675
0.126738
0.08312
0.0551996
0.0438115
0.436301
0.459416
0.477657
0.488338
0.490093
0.484677
0.47344
0.457774
0.439112
0.418196
0.395904
0.372837
0.349759
0.328005
0.308876
0.293287
0.28228
0.280132
0.28495
0.291655
0.29475
0.290897
0.278263
0.25675
0.226757
0.189126
0.146676
0.101609
0.06836
0.0516875
0.434761
0.452023
0.469822
0.482799
0.488722
0.487539
0.479702
0.466676
0.450456
0.431328
0.410611
0.388846
0.367043
0.346694
0.329096
0.315218
0.305576
0.30329
0.306111
0.30978
0.31008
0.304216
0.290859
0.269734
0.241021
0.205229
0.163852
0.119302
0.0831412
0.0620175
0.426462
0.436684
0.452432
0.46717
0.476859
0.480011
0.476516
0.467568
0.453712
0.436474
0.418166
0.398439
0.378676
0.360387
0.345032
0.333388
0.325394
0.322951
0.323765
0.32449
0.321902
0.314032
0.299929
0.279276
0.251841
0.217779
0.178404
0.135567
0.0982446
0.073653
0.408785
0.412734
0.426844
0.443187
0.456404
0.463721
0.464797
0.459756
0.449636
0.436292
0.420214
0.402538
0.385434
0.369806
0.357269
0.348245
0.342018
0.339394
0.338255
0.336189
0.330859
0.321112
0.30633
0.285937
0.259539
0.227483
0.190836
0.150182
0.112808
0.0856418
0.383944
0.381916
0.394753
0.412714
0.429177
0.440582
0.446044
0.445341
0.439281
0.42943
0.4168
0.402747
0.388083
0.375571
0.366275
0.360113
0.355618
0.352783
0.349855
0.34519
0.337418
0.326027
0.310644
0.290274
0.264942
0.235067
0.200965
0.16268
0.126228
0.0973732
0.354377
0.347685
0.35912
0.377971
0.397194
0.41237
0.422075
0.425552
0.423794
0.417833
0.409065
0.39844
0.38731
0.3782
0.372427
0.369219
0.366312
0.363209
0.358661
0.351748
0.341946
0.329383
0.313198
0.292961
0.268725
0.241095
0.20892
0.172928
0.13785
0.108378
0.326046
0.313528
0.322727
0.341605
0.362783
0.38114
0.394638
0.401977
0.404353
0.402453
0.397695
0.390912
0.383508
0.378243
0.376033
0.375716
0.374178
0.370771
0.36482
0.356089
0.344898
0.331114
0.314445
0.294535
0.271685
0.245486
0.214959
0.181031
0.147467
0.11805
0.300519
0.281533
0.287565
0.305412
0.327603
0.348431
0.365103
0.376226
0.382363
0.384274
0.383508
0.380675
0.377242
0.375911
0.377332
0.379723
0.379299
0.375587
0.368515
0.358632
0.346137
0.331501
0.31477
0.295504
0.273951
0.248518
0.21932
0.187182
0.155127
0.126171
0.278671
0.254122
0.255919
0.271341
0.293267
0.315615
0.334817
0.349273
0.358895
0.364461
0.367315
0.368328
0.36898
0.371577
0.376553
0.381372
0.381794
0.377902
0.370103
0.359107
0.345938
0.33121
0.314721
0.296514
0.275333
0.250454
0.222253
0.191616
0.160963
0.132698
0.264194
0.2349
0.230599
0.241862
0.26173
0.28421
0.305053
0.3221
0.334881
0.343802
0.35008
0.354533
0.359131
0.365567
0.37394
0.380834
0.381944
0.37784
0.369615
0.358383
0.345265
0.330818
0.315162
0.297297
0.276101
0.251498
0.223998
0.194557
0.165153
0.137685
0.260741
0.228314
0.215306
0.220187
0.235546
0.256134
0.277247
0.295916
0.311169
0.323049
0.332396
0.340049
0.348248
0.358329
0.369808
0.378425
0.380153
0.37623
0.368148
0.357215
0.344632
0.330993
0.315758
0.297707
0.276328
0.251728
0.224694
0.196209
0.16789
0.141244
0.267937
0.23457
0.214855
0.209918
0.21784
0.233839
0.253171
0.27209
0.28886
0.303023
0.315063
0.325658
0.336955
0.350402
0.364605
0.374658
0.377022
0.373618
0.366273
0.356316
0.344668
0.331489
0.316198
0.297874
0.276207
0.251473
0.224572
0.196754
0.169357
0.143506
0.286519
0.252529
0.22746
0.213583
0.211732
0.220209
0.235073
0.252218
0.269187
0.284717
0.298907
0.312087
0.326296
0.342461
0.359025
0.370356
0.373515
0.371178
0.365313
0.356528
0.345432
0.332102
0.316802
0.298034
0.275972
0.250977
0.224064
0.196549
0.169754
0.144628