/*--------------------------------*- C++ -*----------------------------------*\
| =========                 |                                                 |
| \\      /  F ield         | OpenFOAM: The Open Source CFD Toolbox           |
|  \\    /   O peration     | Version:  5.0                                   |
|   \\  /    A nd           | Web:      www.OpenFOAM.org                      |
|    \\/     M anipulation  |                                                 |
\*---------------------------------------------------------------------------*/
FoamFile
{
    version     2.0;
    format      ascii;
    class       volScalarField;
    location    "1950/air";
    object      nut;
}
// * * * * * * * * * * * * * * * * * * * * * * * * * * * * * * * * * * * * * //

dimensions      [0 2 -1 0 0 0 0];

internalField   nonuniform List<scalar> 
243000
(
0.000145522
0.000147878
0.000144822
0.000140238
0.000134659
0.000128596
0.000122331
0.000116082
0.000110002
0.000104233
9.88605e-05
9.39413e-05
8.94498e-05
8.54146e-05
8.18252e-05
7.87414e-05
7.62029e-05
7.43446e-05
7.44271e-05
7.47113e-05
7.49576e-05
7.32695e-05
0.000331374
7.29813e-05
0.000315134
0.000303807
0.00029716
0.000269434
0.000286237
7.71913e-05
0.000634359
0.000671079
0.00067869
0.000676948
0.000669331
0.000657705
0.000643296
0.000626996
0.000609376
0.000590965
0.00057209
0.00055305
0.000533863
0.000514992
0.000496737
0.000479563
0.000463742
0.000450288
0.000436383
0.000428672
0.000421649
0.000417754
0.000407642
0.000387976
0.000373492
0.000350451
0.000321344
0.000290488
0.000284042
0.000321032
0.000684416
0.00072157
0.000731693
0.000730838
0.00072333
0.000711378
0.000696363
0.000679237
0.000660634
0.000641164
0.000621175
0.000601016
0.00058078
0.000561028
0.000542125
0.000524577
0.000508618
0.000495232
0.000484406
0.000476171
0.00046872
0.000460349
0.000448884
0.000432614
0.000412052
0.00038622
0.000354969
0.000320063
0.000299289
0.000326538
0.000707066
0.000745549
0.000758602
0.000760361
0.000754802
0.000744332
0.000730374
0.000713927
0.000695683
0.000676306
0.000656228
0.000635903
0.000615495
0.000595649
0.000576805
0.000559521
0.000544002
0.000531153
0.000520811
0.000512409
0.00050448
0.000495368
0.000483281
0.0004668
0.000445374
0.000418547
0.000385884
0.000349539
0.000322468
0.000327287
0.000711362
0.000749887
0.000768232
0.000773886
0.000771357
0.000763368
0.000751371
0.000736449
0.000719343
0.000700796
0.000681311
0.000661441
0.000641441
0.000622041
0.000603721
0.000587104
0.00057236
0.00056027
0.000550397
0.000541962
0.00053359
0.000523876
0.000511266
0.000494478
0.000472825
0.000445827
0.000413019
0.00037646
0.000345946
0.000332709
0.000703248
0.000742425
0.00076545
0.00077586
0.000777211
0.000772304
0.000762836
0.000749963
0.000734507
0.000717297
0.000698871
0.000679888
0.000660694
0.000642117
0.000624611
0.000608929
0.000595153
0.000583929
0.000574567
0.000566158
0.000557416
0.000547149
0.000534067
0.000517049
0.000495391
0.000468595
0.00043621
0.000399947
0.0003677
0.000344236
0.00068493
0.000726777
0.000754457
0.000769471
0.000775031
0.000773739
0.000767036
0.000756474
0.000743068
0.000727564
0.000710543
0.000692764
0.000674657
0.000657157
0.000640672
0.000626086
0.000613396
0.000603064
0.000594225
0.000585886
0.000576853
0.000566117
0.000552633
0.000535455
0.000513919
0.000487489
0.000455727
0.000420058
0.000386992
0.000358667
0.000658044
0.000704236
0.000736681
0.000756521
0.000766539
0.000769078
0.000765711
0.000757834
0.000746424
0.000732817
0.000717479
0.00070115
0.000684347
0.000668068
0.000652761
0.000639369
0.000627821
0.000618375
0.00061005
0.000601822
0.000592582
0.000581482
0.000567679
0.000550408
0.000529065
0.000503075
0.000472053
0.000437317
0.000403975
0.000373023
0.000625042
0.000676221
0.000713644
0.00073839
0.00075302
0.000759514
0.000759637
0.000754725
0.000745997
0.00073435
0.000720595
0.000705869
0.000690507
0.000675565
0.00066153
0.00064938
0.000638984
0.000630396
0.000622576
0.000614496
0.000605137
0.000593781
0.000579758
0.000562461
0.000541356
0.000515884
0.000485486
0.00045177
0.000418446
0.00038663
0.000592553
0.000646385
0.000687448
0.000716464
0.00073556
0.00074608
0.000749789
0.000748046
0.000741993
0.000732647
0.000720935
0.000707632
0.000693749
0.00068021
0.000667492
0.000656591
0.000647322
0.000639555
0.000632223
0.000624329
0.000614935
0.000603436
0.000589298
0.000572048
0.000551249
0.000526213
0.000496288
0.000463821
0.000430795
0.000398086
0.000562376
0.00061588
0.000660456
0.000693167
0.000715496
0.000729714
0.000736954
0.000738437
0.000735189
0.00072823
0.000718502
0.00070706
0.00069465
0.000682459
0.000671064
0.000661385
0.000653188
0.0006462
0.000639341
0.000631665
0.000622322
0.000610787
0.000596646
0.00057954
0.00055904
0.000534329
0.000504858
0.000473787
0.000441302
0.000408167
0.000538374
0.000585279
0.000632208
0.000668823
0.000694819
0.00071194
0.00072198
0.000726483
0.000726074
0.000721574
0.000713952
0.000704285
0.000693463
0.000682729
0.000672594
0.000664079
0.000656878
0.000650627
0.000644221
0.000636797
0.000627585
0.00061612
0.000602111
0.000585206
0.000564923
0.000540525
0.000512058
0.000482164
0.000450252
0.000416986
0.000526067
0.000556977
0.000602849
0.000642969
0.000672994
0.000693518
0.000706286
0.000712947
0.000715125
0.000713075
0.000707598
0.00069978
0.00069055
0.000681225
0.000672353
0.00066494
0.000658664
0.000653075
0.000647115
0.000639976
0.00063098
0.000619724
0.000605884
0.000589157
0.000569102
0.000545023
0.000517984
0.000489187
0.000457852
0.00042456
0.000530712
0.000536548
0.000573992
0.000615606
0.000649624
0.000674014
0.000689952
0.000699105
0.000703136
0.000703181
0.000699772
0.000693813
0.000686183
0.000678241
0.000670585
0.000664201
0.00065873
0.000653771
0.00064826
0.000641467
0.000632726
0.000621661
0.000608019
0.000591537
0.000571744
0.000548157
0.000522654
0.000494961
0.000464227
0.000431058
0.000553581
0.000532056
0.000550307
0.000587962
0.000624692
0.000653102
0.00067265
0.000684676
0.000690876
0.000692582
0.000690861
0.000686649
0.000680599
0.000673999
0.000667502
0.00066207
0.000657351
0.000652943
0.00064781
0.00064127
0.000632778
0.000621979
0.000608605
0.000592423
0.000572996
0.000550618
0.000526345
0.000499647
0.000469492
0.000436577
0.000589682
0.000550835
0.000540566
0.000563978
0.000599211
0.00063078
0.000654132
0.000669414
0.000678125
0.000681732
0.000681476
0.000678617
0.000674018
0.0006687
0.000663293
0.000658737
0.000654697
0.000650794
0.00064606
0.000639861
0.000631624
0.00062108
0.000607956
0.000592051
0.000573154
0.000552221
0.000529119
0.000503338
0.000473726
0.000441205
0.00063302
0.0005894
0.000554663
0.000551752
0.000576508
0.000607914
0.000634435
0.000653157
0.000664706
0.000670485
0.000671885
0.000670205
0.000666711
0.000662548
0.000658142
0.000654384
0.000650959
0.000647518
0.000643168
0.000637324
0.000629447
0.000619185
0.000606353
0.000590794
0.00057293
0.000553156
0.000531085
0.000506126
0.00047701
0.00044494
0.000676924
0.00063606
0.00059125
0.00056119
0.000563428
0.000587255
0.000614324
0.000635989
0.000650518
0.000658718
0.000661966
0.000661664
0.000659095
0.000655776
0.000652233
0.000649188
0.00064632
0.000643306
0.00063933
0.000633847
0.000626352
0.000616475
0.000603995
0.000589156
0.000572327
0.000553524
0.000532348
0.000508104
0.000479418
0.000447936
0.000718448
0.000682296
0.000638418
0.000593589
0.000568647
0.000574305
0.000595991
0.000618556
0.000635664
0.000646378
0.000651647
0.00065288
0.000651409
0.000648714
0.000645789
0.000643336
0.00064096
0.000638341
0.000634736
0.000629622
0.000622533
0.000613099
0.000601226
0.000587327
0.000571411
0.000553421
0.000533006
0.000509366
0.000481029
0.000450205
0.000758463
0.000726501
0.000686671
0.000639249
0.000595565
0.000576035
0.000583638
0.000602524
0.000620669
0.000633571
0.00064091
0.000643787
0.000643566
0.000641662
0.000639164
0.000637064
0.000635077
0.000632817
0.000629576
0.000624847
0.000618189
0.000609373
0.000598391
0.000585354
0.000570253
0.000552981
0.000533166
0.000510014
0.000481933
0.000451722
0.000796779
0.000767295
0.000731722
0.000687345
0.000637046
0.000596514
0.000582462
0.000590914
0.00060675
0.000620709
0.000629857
0.000634396
0.000635506
0.000634542
0.000632621
0.000630743
0.000628924
0.000626951
0.000624059
0.000619735
0.000613718
0.000605697
0.000595544
0.000583303
0.00056894
0.000552307
0.000532979
0.000510161
0.000482229
0.000452821
0.000833258
0.000806263
0.000773641
0.000732945
0.0006832
0.000631664
0.000596403
0.000587547
0.000596028
0.000608677
0.000618813
0.000624809
0.000627245
0.000627327
0.000626116
0.000624609
0.000623035
0.000621249
0.000618689
0.000614853
0.000609437
0.000602139
0.000592771
0.000581287
0.000567613
0.000551544
0.000532613
0.000509994
0.000482075
0.000453644
0.000867967
0.00084257
0.000812139
0.000774543
0.000727727
0.000673418
0.000623758
0.000595574
0.000591158
0.000598938
0.000608435
0.000615312
0.000618925
0.000620062
0.000619675
0.000618678
0.000617436
0.000615901
0.000613671
0.000610293
0.00060545
0.000598833
0.000590224
0.00057948
0.00056647
0.000550925
0.000532298
0.000509739
0.00048169
0.000454515
0.000900805
0.000876359
0.000847402
0.000812135
0.00076839
0.000715362
0.000659061
0.00061495
0.00059462
0.000593418
0.000599863
0.000606517
0.000610906
0.000613006
0.000613497
0.000613137
0.000612329
0.000611119
0.000609238
0.000606305
0.000602005
0.000596027
0.000588158
0.000578133
0.000565762
0.000550694
0.000532311
0.000509671
0.000481358
0.00045713
0.000930364
0.000906918
0.000879327
0.000845998
0.000805017
0.000754756
0.00069726
0.000643249
0.000607675
0.000594454
0.00059493
0.000599738
0.000604177
0.000607009
0.000608387
0.000608791
0.000608541
0.000607748
0.000606245
0.000603727
0.000599902
0.000594485
0.000587183
0.000577756
0.00056596
0.000551393
0.00053325
0.000510392
0.000481597
0.000462742
0.000958036
0.000935523
0.000909181
0.000877644
0.000839249
0.000792232
0.000736604
0.00067853
0.000631492
0.000605429
0.000597339
0.000598274
0.000601806
0.000605083
0.000607419
0.000608782
0.000609275
0.000608995
0.000607842
0.000605601
0.000602043
0.00059694
0.000590042
0.000581059
0.00056966
0.00055532
0.000537077
0.000513487
0.000483727
0.000472103
0.000986681
0.00096546
0.00094067
0.000911175
0.000875623
0.000832494
0.000780937
0.000723932
0.000671269
0.000634667
0.000617164
0.000612748
0.00061448
0.000618142
0.000621803
0.000624511
0.000625936
0.000626122
0.000624993
0.000622457
0.000618436
0.00061285
0.000605549
0.000596246
0.00058451
0.000569685
0.000550546
0.000525175
0.00049286
0.000489181
0.00102356
0.00100442
0.000982121
0.000955998
0.000925233
0.000888735
0.000845469
0.000796365
0.000747205
0.000708062
0.000685375
0.000677241
0.000677891
0.000682679
0.000688253
0.000692453
0.00069439
0.000694158
0.000691704
0.000687179
0.000680801
0.000672779
0.000663175
0.000651697
0.000637645
0.000620333
0.000598358
0.000568886
0.000530404
0.000531938
0.00109579
0.00108114
0.00106541
0.00104848
0.0010298
0.00100855
0.000983431
0.000954288
0.000923027
0.000896348
0.000880137
0.000874733
0.000876708
0.000883007
0.00088945
0.000893554
0.000894187
0.000891883
0.000886805
0.00087922
0.000869664
0.000858575
0.0008463
0.000832394
0.000814911
0.000794381
0.000769884
0.000737785
0.000696225
0.000690899
0.00133259
0.00132892
0.00133
0.00133086
0.00133052
0.00132841
0.00132371
0.0013165
0.0013048
0.00129355
0.00128569
0.00128149
0.00128036
0.0012829
0.00128555
0.00128723
0.00128645
0.00128543
0.00128387
0.00128228
0.00128056
0.00127912
0.00127786
0.00127617
0.00126777
0.00125827
0.00124724
0.00123101
0.00120851
0.00119673
0.000176506
0.000182507
0.000180007
0.000174843
0.000168168
0.000160696
0.000152907
0.000145147
0.000137617
0.000130469
0.000123763
0.000117584
0.000111932
0.00010692
0.000102563
9.89891e-05
9.62517e-05
9.45719e-05
9.39631e-05
9.42276e-05
9.45562e-05
9.41576e-05
9.21815e-05
8.80934e-05
8.18175e-05
7.27081e-05
0.000305251
0.000288014
7.40428e-05
7.99457e-05
0.000684484
0.000772194
0.000747731
0.000696065
0.000638365
0.000583864
0.000535442
0.000493004
0.000455726
0.000423309
0.000394874
0.000370199
0.0003481
0.000328987
0.000312072
0.000297513
0.000283924
0.000273062
0.000265
0.000260796
0.000260094
0.000260955
0.000258914
0.000250293
0.000234399
0.00021201
0.000243064
0.000296078
0.000313031
0.000328071
0.00108786
0.00125802
0.00126757
0.00121496
0.00113984
0.00106028
0.00098485
0.000915934
0.000853698
0.000798488
0.000749291
0.00070609
0.000667042
0.000633059
0.000603146
0.000576817
0.000551018
0.000528307
0.000507629
0.000491265
0.000480689
0.000474044
0.000464951
0.000447541
0.000417676
0.000376534
0.000345527
0.00033724
0.000370493
0.000400336
0.00135099
0.00157963
0.00162315
0.00159212
0.00152449
0.00144247
0.00135843
0.00127778
0.00120238
0.00113372
0.0010713
0.00101574
0.000965376
0.000921254
0.000882863
0.000848959
0.000815156
0.000783542
0.000751738
0.0007227
0.000699716
0.000682284
0.000663412
0.00063505
0.000592478
0.000535045
0.000471771
0.000415346
0.000404513
0.000418256
0.00148611
0.00172795
0.00182772
0.00183983
0.00179506
0.00172468
0.00164433
0.00156325
0.00148406
0.00141013
0.0013415
0.0012797
0.00122331
0.00117394
0.00113166
0.0010945
0.00105632
0.0010189
0.000978417
0.000938557
0.000903906
0.000875336
0.000845943
0.000807628
0.000754982
0.000686018
0.000604525
0.000517602
0.000466095
0.000445496
0.00156137
0.00180512
0.00194026
0.00198563
0.00197173
0.00192099
0.00185141
0.00177863
0.00170213
0.00162978
0.00156067
0.00149767
0.00144001
0.0013897
0.00134717
0.00130985
0.00127039
0.00122949
0.00118252
0.00113392
0.00108926
0.00105047
0.00101147
0.000964859
0.000904574
0.000827711
0.000736043
0.000632406
0.000552113
0.000505338
0.0015899
0.00182915
0.00198101
0.00205539
0.00207155
0.00204807
0.00199983
0.00193376
0.00186287
0.00179885
0.00173362
0.00167362
0.00161866
0.00157112
0.00153091
0.00149642
0.00145764
0.00141486
0.00136329
0.00130791
0.0012552
0.00120709
0.00116024
0.00110715
0.00104148
0.000959649
0.000862122
0.000750177
0.000651087
0.000580233
0.00157739
0.00179459
0.00195999
0.0020621
0.00210921
0.00211252
0.00208668
0.00203932
0.00198596
0.00192596
0.00186535
0.00181234
0.00176295
0.00172091
0.00168539
0.00165552
0.00161923
0.00157592
0.00152137
0.00146105
0.00140178
0.00134737
0.00129385
0.00123543
0.00116611
0.00108154
0.000981396
0.000865364
0.000754015
0.000660543
0.00149492
0.00170241
0.00188419
0.00201483
0.00209426
0.00212564
0.00212465
0.00210081
0.00206343
0.00201648
0.00196831
0.00191917
0.00187678
0.00184198
0.00181314
0.0017893
0.00175667
0.00171399
0.00165805
0.00159503
0.00153208
0.00147257
0.00141435
0.00135167
0.00127956
0.00119373
0.00109363
0.000975657
0.000855606
0.000741308
0.00136462
0.00155875
0.00175992
0.00192034
0.00203437
0.0020959
0.00212301
0.0021237
0.00210621
0.00207505
0.00203846
0.00199969
0.00196424
0.00193724
0.00191658
0.00189958
0.00187145
0.00183057
0.00177446
0.00171005
0.0016441
0.00158163
0.00152035
0.00145634
0.00138289
0.00129778
0.00119801
0.00107988
0.000953293
0.000819421
0.0012374
0.00139221
0.00159169
0.00178291
0.0019361
0.00202947
0.00208755
0.00211413
0.00211808
0.00210466
0.00208169
0.00205453
0.00202818
0.00201069
0.00199805
0.00198801
0.00196538
0.00192698
0.00187195
0.00180759
0.00174069
0.00167586
0.00161349
0.00154975
0.00147793
0.00139194
0.0012947
0.00117487
0.00104234
0.000893087
0.00113318
0.00123095
0.00140702
0.00160959
0.00179304
0.00192947
0.00202275
0.00207669
0.00210283
0.0021084
0.00210092
0.00208685
0.00207162
0.00206306
0.00205935
0.00205644
0.00203975
0.00200453
0.00195167
0.00188871
0.00182297
0.00175845
0.00169653
0.00163221
0.00156047
0.00147544
0.00138045
0.00125961
0.00112069
0.000958994
0.00106203
0.00109688
0.00123082
0.00142309
0.0016224
0.00179313
0.0019245
0.00201467
0.00206372
0.00208933
0.00209872
0.00209905
0.00209592
0.00209755
0.00210239
0.00210674
0.00209572
0.00206438
0.00201485
0.00195481
0.00189051
0.00182708
0.00176476
0.00170152
0.00163099
0.00154989
0.00145438
0.00133212
0.00118773
0.00101559
0.00104927
0.001009
0.00108603
0.0012456
0.00144221
0.00163443
0.00179686
0.00192001
0.00200243
0.00205044
0.00207742
0.00209321
0.00210301
0.00211535
0.00212897
0.00214036
0.00213535
0.00210811
0.00206258
0.00200538
0.00194098
0.00187723
0.00181624
0.00175708
0.00168969
0.00161492
0.0015172
0.00139267
0.00124311
0.00106228
0.00108531
0.000989427
0.000998051
0.00110269
0.00127272
0.00146863
0.00165125
0.00180129
0.00191385
0.00199161
0.00203985
0.0020711
0.00209458
0.00211806
0.00214025
0.0021586
0.00216001
0.00213768
0.00209665
0.00204381
0.00198359
0.0019197
0.00185852
0.00179966
0.00173888
0.00166621
0.00156783
0.00144119
0.00128688
0.00109879
0.00117778
0.0010368
0.00097417
0.00101738
0.00113803
0.00131337
0.0015005
0.00166838
0.00180561
0.00191029
0.00198464
0.00203504
0.00207237
0.00210697
0.00213753
0.00216289
0.00217094
0.00215453
0.00211862
0.0020707
0.00201507
0.00195563
0.00189515
0.0018368
0.00178047
0.00170655
0.00160698
0.00147818
0.00131945
0.00112529
0.00133176
0.00115871
0.00103812
0.000997324
0.00105933
0.00118814
0.00135936
0.0015325
0.00168621
0.00181289
0.00191087
0.0019842
0.00203802
0.00208364
0.00212245
0.00215478
0.00216966
0.00215999
0.00212986
0.00208759
0.00203713
0.00198345
0.00192705
0.00187129
0.00181181
0.00173668
0.00163562
0.00150448
0.00134158
0.00114224
0.00154355
0.00135075
0.00118671
0.00107608
0.001048
0.00111577
0.00124626
0.00140684
0.00156545
0.00170672
0.0018239
0.00191764
0.0019911
0.00204961
0.0020968
0.00213594
0.00215781
0.00215562
0.00213199
0.00209624
0.00205217
0.00200528
0.00195563
0.00190066
0.00183686
0.00175859
0.00165534
0.0015214
0.00135433
0.00115049
0.00180429
0.00160087
0.00140825
0.00124228
0.00113464
0.00111305
0.00118183
0.00130706
0.00145473
0.00160021
0.00173001
0.00183997
0.00193061
0.00200546
0.00206263
0.00210827
0.00213736
0.00214332
0.00212718
0.00209928
0.00206339
0.00202381
0.00197957
0.00192414
0.00185676
0.00177401
0.0016676
0.00153048
0.00135909
0.00115117
0.00210084
0.00189281
0.00168244
0.00147813
0.00130504
0.00119852
0.00118068
0.00124972
0.00136713
0.00150294
0.00163633
0.00175646
0.00186029
0.00194875
0.00201904
0.00207372
0.00211037
0.00212508
0.00211805
0.00209864
0.00207051
0.0020371
0.00199655
0.00194105
0.00187141
0.00178439
0.00167455
0.00153358
0.00135742
0.00114472
0.00241547
0.00220681
0.00198594
0.00175677
0.00153698
0.00135887
0.00125725
0.0012457
0.00131457
0.00142516
0.00155058
0.00167271
0.00178384
0.00188162
0.00196224
0.00202707
0.00207276
0.00209667
0.00209935
0.00208864
0.00206754
0.0020407
0.00200301
0.00194939
0.00188025
0.00179209
0.00167801
0.00153253
0.00135108
0.00113365
0.00272506
0.00251846
0.00229266
0.00204908
0.00179951
0.00156972
0.00139599
0.00130546
0.0013053
0.00137422
0.00147957
0.00159297
0.00170325
0.00180362
0.00188871
0.00195873
0.00201032
0.00204229
0.00205488
0.00205408
0.00204263
0.00202225
0.00199244
0.00194607
0.00187967
0.00179052
0.00167516
0.00152713
0.00134091
0.00111974
0.00300019
0.00279825
0.0025731
0.0023244
0.0020597
0.00179825
0.00157194
0.00141299
0.00134264
0.00135416
0.00142007
0.00151512
0.00161362
0.00170598
0.00178507
0.00185139
0.0019022
0.00193788
0.00195922
0.0019705
0.00197296
0.00196737
0.00195185
0.00192021
0.00186583
0.00178187
0.00166311
0.0015138
0.00132599
0.00110322
0.00320384
0.00301087
0.00279345
0.00254946
0.00228326
0.00200832
0.00175009
0.00153963
0.00140561
0.00135552
0.00137026
0.00142549
0.00149575
0.00156434
0.00162379
0.00167454
0.00171572
0.00175033
0.00177816
0.00180245
0.00182243
0.00183727
0.00184408
0.00183657
0.00180667
0.0017446
0.00163886
0.00148962
0.00130255
0.00108099
0.00329359
0.00311713
0.00291698
0.00268902
0.00243466
0.00216241
0.00189109
0.00164761
0.00146257
0.00135191
0.00130769
0.00130835
0.00133406
0.00136674
0.00139986
0.00143128
0.00146047
0.0014896
0.00151968
0.00155164
0.00158446
0.00161718
0.00164675
0.001667
0.00166927
0.00164246
0.00157099
0.00144313
0.00126619
0.00105428
0.0032364
0.00308845
0.00291774
0.00271847
0.00248951
0.00223579
0.00197146
0.0017196
0.00150891
0.00135817
0.00126758
0.00122313
0.0012134
0.0012236
0.00124544
0.00127048
0.00129375
0.00131632
0.00134033
0.00136454
0.00139014
0.00141774
0.00144631
0.00147195
0.0014879
0.00148419
0.0014457
0.00135344
0.00120488
0.00102761
0.00304792
0.00294382
0.00281804
0.00266354
0.00247789
0.00226529
0.00203865
0.00181904
0.00162922
0.00148561
0.00138897
0.00133581
0.00132111
0.00133163
0.00135747
0.0013852
0.00140667
0.00142414
0.00143775
0.00144663
0.00145232
0.00145639
0.00145949
0.0014596
0.00145239
0.00143034
0.00138081
0.00128798
0.00114127
0.000987567
0.00286747
0.00281782
0.00274574
0.0026462
0.00251776
0.00236607
0.00220375
0.00204581
0.00190627
0.00179591
0.00171782
0.00167688
0.00166655
0.00167822
0.00170248
0.00172783
0.00174638
0.00176176
0.00177126
0.00177521
0.00177417
0.00176879
0.00175967
0.00174368
0.00171639
0.00167058
0.00159351
0.00146676
0.0012816
0.00111726
0.00278202
0.00276411
0.00274234
0.00270035
0.00263324
0.00254726
0.00244688
0.00234418
0.00224777
0.00216594
0.00210529
0.00206927
0.00205404
0.00205553
0.00206599
0.00208026
0.00209253
0.00210516
0.00211595
0.00212568
0.00213434
0.00214068
0.00214582
0.00214443
0.00213263
0.00210451
0.0020485
0.00194854
0.00179813
0.00168546
0.00276771
0.00276773
0.00276825
0.0027527
0.00271794
0.00267239
0.00261709
0.00255505
0.00249233
0.00243764
0.00239306
0.00235988
0.00233847
0.00232887
0.002326
0.00233089
0.00233836
0.00234986
0.00236472
0.00238345
0.00240532
0.00242984
0.00245217
0.00247276
0.0024888
0.00249732
0.00249059
0.0024639
0.00242355
0.00239183
0.00020314
0.000209232
0.000204886
0.000198608
0.000190939
0.000182455
0.000173648
0.000164886
0.000156388
0.000148321
0.000140741
0.000133744
0.000127313
0.0001216
0.000116629
0.000112609
0.000109668
0.000108455
0.000109376
0.00011164
0.000113527
0.000113677
0.00011125
0.000105694
9.65875e-05
8.34134e-05
6.94226e-05
0.000298077
7.45787e-05
8.05492e-05
0.00088062
0.00100956
0.00101325
0.000957842
0.000885667
0.000814555
0.00074983
0.000692987
0.000642805
0.000598731
0.000559157
0.000523874
0.000490726
0.00046094
0.000432792
0.000406918
0.000381314
0.000363359
0.00035509
0.000357554
0.000367046
0.000376854
0.000377019
0.000360316
0.000326773
0.000282085
0.000235066
0.000287227
0.000277198
0.000318921
0.00141394
0.00166161
0.00172223
0.00168273
0.00160003
0.00150376
0.00140722
0.00131688
0.00123365
0.00115819
0.00108885
0.00102582
0.000966014
0.000911666
0.000860976
0.000813105
0.00076372
0.000724211
0.000695748
0.00068279
0.000683874
0.000689813
0.000681045
0.000649698
0.00059154
0.000509523
0.000417218
0.000365881
0.000370948
0.000430423
0.0018098
0.00210533
0.00220783
0.00220005
0.00213096
0.00203645
0.0019324
0.00182884
0.00172934
0.00163635
0.00154911
0.00146866
0.00139223
0.00132225
0.00125776
0.00119648
0.00113165
0.00107451
0.00102648
0.000995261
0.000981543
0.000975812
0.000958464
0.000914339
0.000836897
0.000728829
0.000601968
0.000484746
0.000440355
0.000469564
0.00207496
0.00238016
0.00252223
0.00255169
0.00250584
0.00242629
0.00232831
0.00222487
0.00212078
0.00202098
0.00192552
0.00183667
0.00175169
0.00167402
0.0016034
0.00153559
0.00146108
0.00138954
0.00132412
0.00127562
0.00124674
0.00122889
0.00120167
0.00114815
0.00105925
0.000935545
0.000786882
0.000631041
0.000534844
0.000518099
0.00223562
0.00252544
0.00269586
0.00276397
0.00275698
0.00270115
0.00261666
0.0025228
0.00242167
0.00232355
0.00222718
0.00213684
0.00205027
0.0019716
0.00190035
0.00183103
0.00175041
0.00166663
0.00158609
0.00152226
0.0014789
0.00144983
0.00141472
0.00135434
0.00125967
0.00112843
0.000968322
0.000790934
0.000656954
0.000600179
0.00235394
0.00262368
0.00279818
0.00288913
0.00291147
0.00288565
0.00282405
0.00273939
0.00264461
0.00255626
0.00246429
0.00237819
0.00229571
0.00222162
0.0021537
0.00208661
0.002002
0.00190792
0.00181452
0.00173751
0.00168212
0.00164211
0.00160009
0.00153721
0.00144018
0.00130731
0.00114379
0.000956059
0.000796884
0.000706398
0.00243577
0.00265481
0.00282488
0.00293471
0.00298567
0.00298883
0.00295414
0.00289145
0.00281862
0.00273362
0.00264502
0.00256898
0.00249446
0.002429
0.00236835
0.00230597
0.0022189
0.00211643
0.00201252
0.00192456
0.00185863
0.00180921
0.00176117
0.00169763
0.00160274
0.00147316
0.00131162
0.00112238
0.000945027
0.000825219
0.00242492
0.00261365
0.00278216
0.0029116
0.00299169
0.00302487
0.00301976
0.0029829
0.00292858
0.00286069
0.00279139
0.00271792
0.00265224
0.00259873
0.00254837
0.00249219
0.00240419
0.00229518
0.00218345
0.00208674
0.0020119
0.00195443
0.00190165
0.00183824
0.00175059
0.0016247
0.00146665
0.00128055
0.0010957
0.000947764
0.00234054
0.00250607
0.00267712
0.00282915
0.00293933
0.00300458
0.00302977
0.00302216
0.0029908
0.00294318
0.0028889
0.00282967
0.00277773
0.00273517
0.00269717
0.00264805
0.00256037
0.002447
0.00232901
0.00222718
0.00214568
0.00208109
0.00202517
0.00196374
0.00187933
0.00175971
0.0016102
0.00142885
0.00123993
0.00106776
0.00223218
0.00236438
0.00252819
0.00269546
0.00283618
0.00293574
0.00299381
0.00301563
0.00301112
0.00298627
0.0029506
0.00290928
0.00287102
0.00284421
0.00281765
0.00277584
0.00268999
0.00257479
0.00245397
0.00234892
0.00226298
0.00219371
0.00213668
0.0020732
0.00199104
0.00187985
0.00173938
0.00156511
0.00137554
0.00118673
0.00212187
0.00220238
0.00234678
0.00252244
0.00269006
0.00282455
0.00291794
0.00297111
0.00299441
0.0029949
0.00298053
0.00295885
0.0029378
0.00292596
0.00291191
0.00287774
0.00279544
0.00268071
0.00256032
0.00245424
0.00236718
0.00229617
0.00223321
0.00216826
0.0020884
0.00198714
0.00185386
0.00168615
0.00149722
0.00129663
0.00202846
0.00203515
0.00214849
0.00232172
0.00250937
0.00267621
0.00280524
0.00289335
0.0029469
0.00297328
0.00298222
0.00298181
0.00297972
0.00298406
0.00298274
0.00295613
0.00287887
0.00276694
0.00265067
0.00254645
0.00245592
0.00238026
0.00231474
0.00225035
0.00217339
0.00208141
0.00195456
0.00179202
0.00160342
0.00139354
0.00195599
0.00189044
0.0019577
0.00211149
0.00230647
0.00249878
0.00266133
0.00278436
0.00287043
0.00292616
0.00295941
0.00298108
0.00299931
0.00302002
0.00303153
0.00301317
0.0029432
0.00283628
0.00272408
0.00262019
0.00252856
0.00245103
0.0023834
0.00232136
0.00225116
0.00216282
0.00204231
0.00188315
0.001694
0.00147619
0.00195869
0.00180911
0.00180824
0.00191844
0.00210057
0.00230472
0.00249398
0.00264952
0.00276822
0.0028544
0.00291527
0.00295983
0.00299822
0.00303554
0.00306015
0.00305101
0.00299111
0.002891
0.00278671
0.00268795
0.00259659
0.00251788
0.00244948
0.0023867
0.00231975
0.00223295
0.00211587
0.00195938
0.00176889
0.00154395
0.00202483
0.00182764
0.00173667
0.00177706
0.00191937
0.00211319
0.0023153
0.0024965
0.00264528
0.00276151
0.00285048
0.00292007
0.00297871
0.0030321
0.00307033
0.00307153
0.00302401
0.00293361
0.00283792
0.00274609
0.00265969
0.00258195
0.00251368
0.00244812
0.00237964
0.00229258
0.00217641
0.0020219
0.00182863
0.00159684
0.00216682
0.00193305
0.00177309
0.00172642
0.00179971
0.00195109
0.00214345
0.00233675
0.00250869
0.00265194
0.00276801
0.00286255
0.00294236
0.00301138
0.00306297
0.00307587
0.00304234
0.00296498
0.00287919
0.00279521
0.00271568
0.00264255
0.00257423
0.00250441
0.00243169
0.00234238
0.00222484
0.00207005
0.00187338
0.00163504
0.00240271
0.00214403
0.00192835
0.00179312
0.00176104
0.00184989
0.00200253
0.00218625
0.00236842
0.00253163
0.00267136
0.00278908
0.0028891
0.00297365
0.00303819
0.00306369
0.00304536
0.00298407
0.0029097
0.00283535
0.00276418
0.00269619
0.00262725
0.00255375
0.00247575
0.00238266
0.00226197
0.00210447
0.00190403
0.00165915
0.00271372
0.0024417
0.00218782
0.00198003
0.00185286
0.00183296
0.00192066
0.00206436
0.00223723
0.00240801
0.00256458
0.00270115
0.00281818
0.00291743
0.00299302
0.00303114
0.00302842
0.00298614
0.00292483
0.0028619
0.00279912
0.002736
0.00266702
0.00259243
0.0025107
0.00241321
0.00228811
0.0021264
0.0019211
0.00166964
0.00306862
0.00279138
0.00251419
0.00225543
0.0020466
0.00192424
0.00190863
0.00199198
0.00212909
0.00228869
0.00245154
0.00259865
0.00272704
0.00283611
0.00291872
0.00296677
0.00297855
0.00295653
0.00291142
0.00286066
0.00280735
0.00274922
0.00268588
0.0026175
0.00253551
0.00243434
0.00230399
0.00213722
0.00192481
0.00166674
0.0034293
0.00315164
0.00286194
0.00257157
0.00230475
0.00209627
0.00198084
0.0019718
0.00204841
0.00218299
0.00233416
0.00247755
0.0026088
0.00271675
0.00279851
0.00285095
0.00287529
0.00287114
0.00284648
0.00281206
0.00277434
0.00273203
0.00268125
0.00261819
0.00254013
0.00244425
0.00231267
0.00214021
0.00192135
0.00165597
0.00375371
0.00347929
0.00318574
0.0028796
0.00257815
0.00230944
0.00210967
0.0020077
0.00200504
0.0020783
0.00219803
0.00232486
0.00244059
0.00253762
0.00260797
0.0026579
0.00269052
0.00270057
0.00269703
0.00268512
0.00266946
0.00264964
0.00262137
0.00257747
0.00250895
0.00241078
0.00228799
0.00212269
0.00190513
0.00163714
0.00399867
0.00373234
0.00344355
0.00313544
0.00281955
0.00251641
0.00225681
0.00207361
0.00198512
0.00198181
0.00204019
0.00212426
0.00220852
0.00228185
0.00233344
0.00237648
0.00240975
0.00243258
0.00244784
0.00246014
0.00247
0.0024773
0.00247751
0.0024627
0.00242233
0.00234259
0.00222208
0.00206453
0.00186163
0.00160432
0.00412373
0.00387348
0.00359977
0.00330305
0.0029902
0.00267514
0.00238138
0.00213863
0.00197245
0.00188826
0.0018696
0.00189273
0.00193489
0.00198014
0.00202244
0.00206108
0.00209547
0.00212543
0.00215274
0.0021806
0.00220749
0.00223386
0.00225618
0.00226717
0.00225672
0.00221167
0.00211463
0.00197146
0.00177677
0.00154071
0.00410287
0.00388026
0.00363458
0.00336367
0.0030706
0.00276454
0.00246318
0.00219205
0.00197805
0.00183459
0.00175407
0.00172724
0.00173941
0.0017718
0.00181848
0.00186203
0.00189868
0.00192906
0.00195802
0.00198332
0.00200612
0.00202783
0.00204738
0.00205993
0.00205763
0.00202969
0.00196124
0.00183685
0.0016725
0.00146214
0.00394571
0.0037673
0.00356658
0.00333878
0.00308445
0.00281096
0.00253321
0.00227466
0.00206081
0.00190319
0.00180146
0.00175985
0.00176445
0.00179853
0.00185323
0.00190181
0.00193765
0.00196409
0.00198531
0.00199771
0.00200324
0.00200359
0.00199934