/*--------------------------------*- C++ -*----------------------------------*\
| =========                 |                                                 |
| \\      /  F ield         | OpenFOAM: The Open Source CFD Toolbox           |
|  \\    /   O peration     | Version:  5.0                                   |
|   \\  /    A nd           | Web:      www.OpenFOAM.org                      |
|    \\/     M anipulation  |                                                 |
\*---------------------------------------------------------------------------*/
FoamFile
{
    version     2.0;
    format      ascii;
    class       volScalarField;
    location    "1950/air";
    object      T;
}
// * * * * * * * * * * * * * * * * * * * * * * * * * * * * * * * * * * * * * //

dimensions      [0 0 0 1 0 0 0];

internalField   nonuniform List<scalar> 
243000
(
300.492
300.485
300.479
300.474
300.469
300.464
300.458
300.453
300.448
300.442
300.436
300.43
300.423
300.417
300.41
300.403
300.395
300.386
300.376
300.364
300.351
300.336
300.321
300.307
300.296
300.289
300.294
300.537
301.298
301.531
300.488
300.48
300.474
300.469
300.464
300.459
300.454
300.448
300.443
300.437
300.431
300.425
300.419
300.412
300.405
300.398
300.39
300.382
300.372
300.36
300.347
300.333
300.318
300.305
300.293
300.286
300.286
300.381
300.892
301.27
300.486
300.477
300.471
300.465
300.46
300.455
300.449
300.444
300.439
300.433
300.427
300.421
300.415
300.408
300.401
300.394
300.386
300.378
300.368
300.357
300.344
300.33
300.316
300.303
300.292
300.283
300.281
300.32
300.476
300.957
300.485
300.476
300.468
300.462
300.457
300.451
300.446
300.441
300.435
300.429
300.423
300.417
300.411
300.404
300.397
300.39
300.382
300.373
300.364
300.353
300.341
300.328
300.315
300.302
300.29
300.281
300.277
300.292
300.344
300.636
300.485
300.475
300.467
300.46
300.454
300.448
300.443
300.437
300.432
300.426
300.42
300.414
300.407
300.401
300.394
300.386
300.378
300.37
300.36
300.35
300.338
300.326
300.313
300.301
300.289
300.28
300.275
300.279
300.298
300.43
300.486
300.475
300.467
300.459
300.452
300.446
300.44
300.435
300.429
300.423
300.417
300.411
300.404
300.397
300.39
300.383
300.375
300.366
300.357
300.347
300.336
300.324
300.312
300.3
300.289
300.28
300.273
300.273
300.28
300.352
300.488
300.477
300.467
300.458
300.451
300.444
300.438
300.432
300.426
300.42
300.414
300.408
300.401
300.394
300.387
300.379
300.371
300.363
300.353
300.344
300.333
300.322
300.31
300.299
300.289
300.279
300.273
300.27
300.273
300.327
300.493
300.478
300.467
300.458
300.45
300.443
300.437
300.43
300.424
300.418
300.411
300.405
300.398
300.391
300.384
300.376
300.368
300.359
300.35
300.341
300.331
300.32
300.309
300.299
300.288
300.279
300.273
300.269
300.269
300.315
300.502
300.482
300.469
300.459
300.45
300.442
300.435
300.429
300.422
300.416
300.409
300.403
300.396
300.388
300.381
300.373
300.365
300.356
300.348
300.338
300.329
300.319
300.308
300.298
300.288
300.28
300.273
300.269
300.268
300.307
300.521
300.488
300.471
300.459
300.45
300.442
300.434
300.427
300.42
300.414
300.407
300.4
300.393
300.386
300.378
300.371
300.362
300.354
300.345
300.336
300.327
300.317
300.307
300.298
300.288
300.28
300.273
300.268
300.267
300.304
300.552
300.501
300.476
300.461
300.451
300.442
300.434
300.426
300.419
300.412
300.405
300.398
300.391
300.384
300.376
300.368
300.36
300.351
300.343
300.334
300.325
300.316
300.306
300.297
300.289
300.281
300.274
300.269
300.267
300.303
300.598
300.524
300.486
300.465
300.452
300.442
300.433
300.426
300.418
300.411
300.404
300.397
300.389
300.382
300.374
300.366
300.358
300.349
300.34
300.332
300.323
300.314
300.306
300.297
300.289
300.281
300.275
300.269
300.267
300.303
300.66
300.562
300.504
300.473
300.455
300.443
300.434
300.425
300.417
300.41
300.403
300.395
300.388
300.38
300.372
300.364
300.356
300.347
300.339
300.33
300.322
300.313
300.305
300.297
300.289
300.282
300.275
300.27
300.267
300.304
300.733
300.621
300.537
300.489
300.462
300.446
300.435
300.425
300.417
300.409
300.402
300.394
300.387
300.379
300.371
300.362
300.354
300.345
300.337
300.329
300.321
300.312
300.304
300.297
300.289
300.282
300.276
300.27
300.268
300.306
300.807
300.701
300.591
300.517
300.475
300.452
300.437
300.426
300.417
300.409
300.401
300.393
300.385
300.378
300.369
300.361
300.352
300.344
300.336
300.327
300.319
300.312
300.304
300.296
300.289
300.283
300.276
300.27
300.268
300.31
300.871
300.791
300.672
300.567
300.501
300.464
300.442
300.428
300.418
300.409
300.4
300.393
300.385
300.377
300.368
300.36
300.351
300.343
300.334
300.326
300.319
300.311
300.304
300.296
300.29
300.283
300.277
300.271
300.269
300.314
300.923
300.873
300.77
300.644
300.546
300.486
300.452
300.433
300.419
300.409
300.4
300.392
300.384
300.376
300.367
300.359
300.35
300.342
300.334
300.326
300.318
300.31
300.303
300.296
300.29
300.283
300.277
300.271
300.27
300.32
300.962
300.935
300.864
300.743
300.616
300.525
300.472
300.441
300.423
300.411
300.401
300.392
300.384
300.375
300.367
300.358
300.35
300.341
300.333
300.325
300.317
300.31
300.303
300.297
300.29
300.284
300.277
300.272
300.27
300.327
300.993
300.977
300.936
300.843
300.71
300.587
300.505
300.458
300.431
300.414
300.402
300.392
300.383
300.375
300.366
300.358
300.349
300.341
300.333
300.325
300.317
300.31
300.303
300.297
300.29
300.284
300.278
300.272
300.271
300.335
301.021
301.011
300.986
300.925
300.811
300.672
300.558
300.485
300.444
300.42
300.405
300.393
300.384
300.375
300.366
300.358
300.349
300.341
300.332
300.325
300.317
300.31
300.303
300.297
300.29
300.284
300.278
300.272
300.273
300.345
301.048
301.039
301.022
300.983
300.899
300.767
300.63
300.528
300.466
300.431
300.41
300.396
300.385
300.375
300.366
300.358
300.349
300.341
300.332
300.325
300.317
300.31
300.303
300.297
300.29
300.284
300.278
300.272
300.274
300.356
301.075
301.066
301.052
301.025
300.967
300.858
300.716
300.588
300.5
300.448
300.418
300.4
300.387
300.376
300.367
300.358
300.349
300.341
300.332
300.325
300.317
300.31
300.303
300.297
300.29
300.284
300.278
300.273
300.275
300.37
301.103
301.093
301.08
301.058
301.016
300.933
300.803
300.66
300.547
300.474
300.432
300.407
300.39
300.378
300.368
300.358
300.35
300.341
300.333
300.325
300.317
300.31
300.303
300.297
300.29
300.284
300.278
300.273
300.277
300.388
301.133
301.121
301.107
301.087
301.054
300.991
300.881
300.738
300.605
300.51
300.452
300.417
300.396
300.381
300.369
300.359
300.35
300.342
300.333
300.325
300.318
300.311
300.304
300.297
300.291
300.284
300.278
300.273
300.28
300.423
301.162
301.149
301.133
301.113
301.084
301.034
300.944
300.813
300.67
300.555
300.479
300.433
300.404
300.386
300.372
300.361
300.351
300.342
300.334
300.326
300.318
300.311
300.304
300.297
300.291
300.285
300.278
300.273
300.285
300.486
301.191
301.176
301.158
301.136
301.109
301.066
300.992
300.877
300.736
300.607
300.513
300.453
300.416
300.392
300.376
300.363
300.353
300.343
300.335
300.327
300.319
300.312
300.305
300.298
300.291
300.285
300.278
300.274
300.293
300.572
301.217
301.198
301.177
301.153
301.125
301.085
301.022
300.923
300.792
300.658
300.55
300.477
300.43
300.4
300.38
300.365
300.353
300.343
300.334
300.326
300.318
300.311
300.304
300.297
300.291
300.284
300.278
300.274
300.303
300.677
301.222
301.198
301.173
301.145
301.114
301.076
301.021
300.935
300.817
300.686
300.572
300.489
300.434
300.398
300.373
300.356
300.343
300.332
300.324
300.316
300.309
300.303
300.297
300.291
300.285
300.279
300.273
300.271
300.315
300.783
301.118
301.089
301.059
301.029
300.996
300.956
300.904
300.831
300.731
300.618
300.515
300.437
300.382
300.345
300.32
300.303
300.291
300.282
300.275
300.27
300.265
300.262
300.258
300.255
300.252
300.248
300.245
300.248
300.311
300.818
300.537
300.526
300.522
300.514
300.498
300.476
300.448
300.411
300.363
300.309
300.259
300.22
300.191
300.171
300.157
300.147
300.14
300.135
300.131
300.128
300.126
300.124
300.123
300.122
300.122
300.122
300.122
300.128
300.182
300.443
300.494
300.486
300.48
300.474
300.469
300.463
300.457
300.451
300.444
300.438
300.431
300.424
300.417
300.409
300.401
300.392
300.383
300.371
300.357
300.339
300.317
300.295
300.273
300.255
300.24
300.231
300.253
300.602
301.257
301.424
300.49
300.48
300.473
300.466
300.461
300.455
300.449
300.443
300.436
300.43
300.423
300.416
300.409
300.401
300.393
300.384
300.375
300.364
300.351
300.334
300.314
300.293
300.273
300.255
300.24
300.23
300.241
300.406
300.909
301.146
300.488
300.477
300.468
300.461
300.455
300.448
300.442
300.436
300.43
300.423
300.416
300.409
300.401
300.394
300.385
300.377
300.367
300.357
300.344
300.329
300.311
300.291
300.273
300.256
300.241
300.23
300.233
300.317
300.566
300.847
300.489
300.476
300.466
300.458
300.451
300.444
300.437
300.431
300.424
300.417
300.41
300.403
300.395
300.387
300.379
300.37
300.361
300.35
300.338
300.324
300.307
300.29
300.272
300.256
300.242
300.231
300.229
300.272
300.395
300.567
300.493
300.479
300.467
300.457
300.448
300.44
300.433
300.426
300.419
300.412
300.405
300.397
300.389
300.381
300.373
300.364
300.354
300.344
300.333
300.319
300.304
300.288
300.272
300.257
300.243
300.232
300.228
300.249
300.312
300.405
300.5
300.483
300.47
300.458
300.448
300.439
300.43
300.423
300.415
300.408
300.4
300.392
300.384
300.376
300.367
300.358
300.349
300.339
300.328
300.315
300.301
300.286
300.271
300.257
300.244
300.233
300.227
300.237
300.271
300.33
300.51
300.491
300.474
300.461
300.449
300.438
300.429
300.42
300.412
300.404
300.396
300.388
300.38
300.371
300.362
300.353
300.343
300.333
300.323
300.311
300.298
300.284
300.271
300.257
300.245
300.235
300.228
300.231
300.25
300.299
300.524
300.501
300.481
300.465
300.451
300.439
300.429
300.419
300.41
300.401
300.393
300.384
300.375
300.367
300.357
300.348
300.338
300.329
300.318
300.307
300.295
300.283
300.27
300.257
300.246
300.236
300.229
300.229
300.24
300.282
300.542
300.514
300.491
300.471
300.455
300.441
300.429
300.418
300.408
300.399
300.39
300.381
300.372
300.363
300.353
300.343
300.334
300.324
300.314
300.304
300.293
300.281
300.269
300.258
300.247
300.237
300.23
300.229
300.236
300.273
300.561
300.53
300.502
300.479
300.46
300.444
300.431
300.419
300.408
300.397
300.388
300.378
300.369
300.359
300.349
300.34
300.33
300.32
300.31
300.3
300.29
300.279
300.268
300.258
300.248
300.239
300.232
300.229
300.234
300.268
300.585
300.548
300.515
300.488
300.467
300.449
300.433
300.42
300.408
300.397
300.386
300.376
300.366
300.356
300.346
300.336
300.326
300.316
300.307
300.297
300.288
300.278
300.268
300.258
300.248
300.24
300.233
300.23
300.234
300.266
300.615
300.571
300.532
300.5
300.475
300.454
300.437
300.422
300.409
300.397
300.386
300.375
300.364
300.354
300.343
300.333
300.323
300.313
300.304
300.295
300.286
300.276
300.267
300.258
300.249
300.241
300.235
300.231
300.234
300.266
300.651
300.602
300.555
300.516
300.485
300.461
300.442
300.426
300.411
300.398
300.386
300.374
300.363
300.352
300.341
300.33
300.32
300.31
300.301
300.292
300.284
300.275
300.266
300.258
300.25
300.242
300.236
300.232
300.235
300.268
300.694
300.644
300.587
300.538
300.5
300.471
300.449
300.43
300.414
300.4
300.387
300.374
300.362
300.351
300.34
300.328
300.318
300.308
300.299
300.29
300.282
300.274
300.266
300.258
300.25
300.243
300.237
300.234
300.237
300.27
300.737
300.695
300.632
300.571
300.523
300.486
300.458
300.436
300.418
300.402
300.388
300.375
300.362
300.35
300.338
300.327
300.316
300.306
300.297
300.289
300.281
300.273
300.265
300.258
300.251
300.244
300.239
300.235
300.239
300.273
300.777
300.749
300.689
300.618
300.556
300.508
300.472
300.446
300.424
300.407
300.391
300.377
300.363
300.35
300.338
300.326
300.315
300.305
300.296
300.288
300.28
300.272
300.265
300.258
300.251
300.245
300.24
300.237
300.24
300.278
300.811
300.798
300.752
300.679
300.603
300.541
300.494
300.46
300.433
300.413
300.395
300.379
300.365
300.351
300.338
300.326
300.315
300.304
300.295
300.287
300.279
300.272
300.265
300.258
300.251
300.245
300.241
300.238
300.242
300.283
300.839
300.837
300.809
300.747
300.665
300.587
300.525
300.48
300.447
300.421
300.401
300.383
300.367
300.353
300.339
300.326
300.315
300.304
300.295
300.286
300.279
300.271
300.264
300.258
300.251
300.246
300.242
300.239
300.245
300.288
300.863
300.868
300.854
300.81
300.734
300.647
300.569
300.509
300.466
300.434
300.409
300.389
300.371
300.355
300.341
300.328
300.315
300.304
300.295
300.286
300.278
300.271
300.264
300.258
300.252
300.247
300.242
300.241
300.247
300.295
300.887
300.894
300.888
300.86
300.8
300.714
300.625
300.55
300.493
300.452
300.422
300.397
300.377
300.359
300.344
300.329
300.317
300.305
300.295
300.286
300.278
300.271
300.264
300.258
300.252
300.247
300.243
300.242
300.249
300.303
300.911
300.918
300.916
300.898
300.855
300.781
300.689
300.601
300.53
300.477
300.438
300.409
300.385
300.365
300.348
300.332
300.319
300.307
300.296
300.287
300.278
300.271
300.264
300.258
300.252
300.248
300.244
300.243
300.252
300.312
300.938
300.942
300.94
300.928
300.897
300.838
300.753
300.659
300.575
300.509
300.46
300.424
300.395
300.372
300.353
300.336
300.322
300.309
300.298
300.288
300.279
300.271
300.264
300.258
300.253
300.248
300.245
300.245
300.255
300.323
300.966
300.966
300.963
300.953
300.93
300.884
300.81
300.718
300.626
300.548
300.488
300.443
300.409
300.382
300.36
300.341
300.325
300.312
300.3
300.289
300.28
300.272
300.265
300.259
300.253
300.249
300.246
300.246
300.259
300.336
300.994
300.991
300.985
300.975
300.955
300.918
300.857
300.772
300.678
300.591
300.52
300.466
300.425
300.393
300.368
300.347
300.33
300.315
300.302
300.292
300.282
300.274
300.266
300.26
300.254
300.25
300.247
300.248
300.264
300.355
301.021
301.014
301.004
300.992
300.972
300.941
300.89
300.815
300.724
300.632
300.553
300.49
300.441
300.404
300.375
300.352
300.333
300.318
300.304
300.293
300.283
300.274
300.267
300.26
300.254
300.25
300.247
300.249
300.27
300.382
301.043
301.03
301.015
300.999
300.979
300.951
300.906
300.839
300.754
300.662
300.577
300.507
300.453
300.411
300.378
300.353
300.333
300.316
300.303
300.291
300.281
300.273
300.265
300.258
300.253
300.248
300.246
300.25
300.28
300.423
301.046
301.027
301.006
300.985
300.963
300.935
300.896
300.838
300.758
300.668
300.58
300.505
300.445
300.4
300.365
300.339
300.319
300.303
300.29
300.28
300.271
300.263
300.257
300.251
300.246
300.243
300.242
300.251
300.295
300.487
300.997
300.971
300.947
300.925
300.901
300.873
300.834
300.78
300.705
300.617
300.532
300.459
300.401
300.357
300.325
300.3
300.282
300.269
300.258
300.25
300.244
300.238
300.234
300.23
300.227
300.226
300.227
300.243
300.313
300.582
300.825
300.798
300.781
300.765
300.745
300.718
300.682
300.633
300.568
300.493
300.42
300.359
300.312
300.276
300.249
300.23
300.217
300.206
300.199
300.193
300.189
300.187
300.185
300.184
300.183
300.184
300.187
300.21
300.311
300.624
300.462
300.453
300.45
300.448
300.44
300.427
300.406
300.377
300.338
300.293
300.25
300.214
300.186
300.165
300.149
300.138
300.13
300.123
300.118
300.114
300.111
300.109
300.107
300.106
300.105
300.105
300.107
300.12
300.186
300.381
300.495
300.487
300.481
300.475
300.468
300.462
300.456
300.449
300.442
300.435
300.427
300.419
300.411
300.402
300.393
300.384
300.373
300.358
300.338
300.312
300.284
300.257
300.233
300.214
300.199
300.189
300.217
300.618
301.224
301.323
300.487
300.478
300.471
300.464
300.458
300.451
300.445
300.438
300.431
300.424
300.416
300.408
300.4
300.392
300.383
300.373
300.362
300.349
300.33
300.307
300.281
300.257
300.234
300.216
300.201
300.19
300.201
300.416
300.9
301.059
300.482
300.472
300.464
300.457
300.45
300.444
300.437
300.43
300.423
300.415
300.407
300.399
300.391
300.382
300.373
300.363
300.353
300.34
300.323
300.302
300.279
300.256
300.236
300.218
300.203
300.191
300.195
300.315
300.603
300.8
300.48
300.469
300.46
300.453
300.445
300.438
300.431
300.424
300.416
300.408
300.4
300.392
300.383
300.374
300.365
300.355
300.345
300.332
300.317
300.298
300.277
300.256
300.236
300.219
300.205
300.193
300.192
300.26
300.427
300.557
300.48
300.469
300.46
300.45
300.442
300.434
300.426
300.418
300.41
300.402
300.394
300.385
300.376
300.367
300.357
300.347
300.337
300.325
300.31
300.293
300.274
300.255
300.237
300.221
300.207
300.196
300.192
300.229
300.327
300.412
300.482
300.471
300.461
300.451
300.442
300.432
300.423
300.415
300.406
300.397
300.389
300.379
300.37
300.36
300.351
300.34
300.33
300.318
300.305
300.289
300.272
300.254
300.238
300.222
300.209
300.198
300.193
300.213
300.271
300.332
300.485
300.475
300.464
300.454
300.443
300.432
300.422
300.412
300.403
300.393
300.384
300.375
300.365
300.355
300.344
300.334
300.323
300.312
300.299
300.285
300.269
300.253
300.238
300.224
300.211
300.2
300.194
300.204
300.239
300.287
300.492
300.482
300.47
300.458
300.446
300.434
300.423
300.412
300.401
300.391
300.381
300.37
300.36
300.349
300.339
300.328
300.318
300.306
300.295
300.281
300.267
300.252
300.238
300.225
300.213
300.203
300.196
300.2
300.222
300.262
300.503
300.492
300.478
300.464
300.45
300.437
300.425
300.412
300.4
300.389
300.378
300.367
300.356
300.345
300.334
300.323
300.312
300.301
300.29
300.278
300.265
300.251
300.238
300.226
300.215
300.205
300.198
300.199
300.212
300.247
300.518
300.506
300.49
300.473
300.457
300.442
300.428
300.414
300.401
300.389
300.376
300.365
300.353
300.341
300.33
300.318
300.307
300.297
300.286
300.275
300.263
300.25
300.238
300.227
300.216
300.207
300.2
300.199
300.208
300.238
300.538
300.523
300.505
300.485
300.466
300.448
300.432
300.417
300.403
300.389
300.376
300.363
300.351
300.338
300.326
300.314
300.303
300.292
300.282
300.272
300.261
300.25
300.238
300.228
300.218
300.209
300.202
300.2
300.207
300.234
300.561
300.545
300.523
300.499
300.477
300.456
300.438
300.421
300.406
300.391
300.377
300.363
300.349
300.336
300.323
300.311
300.299
300.289
300.279
300.269
300.259
300.249
300.238
300.229
300.22
300.211
300.204
300.202
300.207
300.232
300.589
300.572
300.546
300.518
300.491
300.467
300.446
300.427
300.41
300.394
300.379
300.364
300.349
300.335
300.321
300.308
300.296
300.286
300.276
300.267
300.257
300.248
300.238
300.229
300.221
300.213
300.206
300.204
300.208
300.233
300.619
300.604
300.575
300.542
300.51
300.481
300.457
300.435
300.416
300.398
300.381
300.365
300.349
300.334
300.32
300.306
300.294
300.283
300.274
300.265
300.256
300.247
300.238
300.23
300.222
300.215
300.209
300.206
300.21
300.235
300.652
300.64
300.61
300.572
300.534
300.5
300.471
300.445
300.423
300.403
300.385
300.368
300.351
300.335
300.319
300.305
300.293
300.282
300.272
300.263
300.255
300.247
300.238
300.23
300.223
300.216
300.21
300.208
300.212
300.238
300.685
300.679
300.653
300.611
300.566
300.525
300.489
300.459
300.434
300.411
300.391
300.371
300.353
300.336
300.32
300.305
300.292
300.281
300.271
300.262
300.254
300.246
300.238
300.231
300.224
300.217
300.212
300.21
300.215
300.242
300.716
300.717
300.698
300.658
300.607
300.558
300.514
300.478
300.447
300.421
300.398
300.377
300.357
300.338
300.321
300.305
300.292
300.28
300.27
300.262
300.254
300.246
300.238
300.231
300.224
300.219
300.214
300.213
300.218
300.246
300.744
300.752
300.741
300.707
300.657
300.6
300.548
300.503
300.466
300.435
300.408
300.384
300.362
300.342
300.324
300.307
300.293
300.281
300.27
300.261
300.253
300.246
300.238
300.231
300.225
300.22
300.216
300.215
300.221
300.251
300.772
300.782
300.778
300.754
300.709
300.65
300.589
300.535
300.49
300.452
300.421
300.394
300.369
300.347
300.327
300.31
300.295
300.282
300.271
300.262
300.253
300.246
300.239
300.232
300.226
300.221
300.217
300.217
300.224
300.258
300.799
300.81
300.81
300.794
300.758
300.702
300.637
300.574
300.52
300.475
300.437
300.406
300.378
300.354
300.332
300.313
300.298
300.284
300.272
300.262
300.254
300.246
300.239
300.233
300.227
300.222
300.219
300.219
300.227
300.265
300.828
300.837
300.838
300.828
300.8
300.752
300.688
300.62
300.556
300.502
300.458
300.42
300.389
300.362
300.338
300.318
300.301
300.287
300.275
300.264
300.255
300.247
300.24
300.234
300.228
300.224
300.221
300.221
300.231
300.273
300.857
300.864
300.864
300.856
300.835
300.795
300.737
300.667
300.597
300.534
300.482
300.438
300.402
300.371
300.345
300.324
300.305
300.29
300.277
300.266
300.257
300.249
300.241
300.235
300.23
300.225
300.223
300.224
300.235
300.282
300.888
300.89
300.888
300.881
300.863
300.831
300.779
300.713
300.639
300.57
300.509
300.458
300.416
300.382
300.353
300.33
300.31
300.294
300.28
300.269
300.259
300.25
300.243
300.236
300.231
300.227
300.224
300.226
300.24
300.294
300.917
300.915
300.91
300.901
300.885
300.857
300.812
300.751
300.678
300.604
300.537
300.479
300.432
300.393
300.361
300.335
300.314
300.296
300.282
300.27
300.26
300.251
300.244
300.237
300.232
300.228
300.226
300.229
300.246
300.309
300.942
300.935
300.926
300.914
300.897
300.871
300.832
300.777
300.707
300.632
300.56
300.496
300.443
300.4
300.365
300.336
300.314
300.295
300.281
300.269
300.259
300.25
300.243
300.237
300.232
300.228
300.227
300.232
300.254
300.331
300.956
300.943
300.929
300.914
300.896
300.872
300.836
300.785
300.719
300.644
300.569
300.501
300.443
300.396
300.358
300.328
300.304
300.286
300.272
300.26
300.251
300.244
300.237
300.232
300.228
300.225
300.226
300.235
300.266
300.366
300.94
300.921
300.903
300.885
300.865
300.841
300.807
300.759
300.696
300.622
300.547
300.478
300.419
300.371
300.333
300.303
300.28
300.263
300.25
300.24
300.233
300.227
300.222
300.219
300.217
300.216
300.219
300.236
300.285
300.424
300.865
300.841
300.822
300.806
300.788
300.765
300.732
300.687
300.627
300.557
300.485
300.42
300.365
300.32
300.285
300.257
300.237
300.222
300.211
300.204
300.199
300.195
300.193
300.192
300.192
300.194
300.201
300.227
300.304
300.502
300.695
300.677
300.664
300.653
300.639
300.621
300.593
300.554
300.503
300.443
300.382
300.328
300.283
300.247
300.22
300.198
300.182
300.171
300.162
300.157
300.153
300.151
300.15
300.15
300.151
300.153
300.161
300.193
300.296
300.523
300.425
300.421
300.421
300.422
300.419
300.411
300.395
300.37
300.336
300.295
300.255
300.219
300.19
300.166
300.147
300.132
300.122
300.113
300.107
300.103
300.1
300.098
300.097
300.096
300.096
300.097
300.101
300.123
300.193
300.348
300.498
300.489
300.483
300.476
300.47
300.463
300.456
300.448
300.441
300.433
300.425
300.416
300.407
300.398
300.388
300.378
300.365
300.346
300.318
300.284
300.251
300.224
300.202
300.186
300.174
300.165
300.184
300.642
301.171
301.232
300.488
300.478
300.47
300.463
300.457
300.45
300.443
300.436
300.428
300.42
300.412
300.403
300.395
300.385
300.376
300.365
300.353
300.335
300.31
300.28
300.251
300.225
300.204
300.188
300.175
300.166
300.175
300.437
300.91
300.993
300.48
300.47
300.462
300.455
300.448
300.441
300.434
300.426
300.418
300.41
300.402
300.393
300.384
300.375
300.365
300.354
300.342
300.326
300.303
300.276
300.249
300.226
300.206
300.19
300.177
300.167
300.171
300.328
300.649
300.776
300.476
300.465
300.457
300.449
300.441
300.434
300.426
300.419
300.411
300.402
300.393
300.384
300.375
300.365
300.355
300.345
300.333
300.317
300.296
300.272
300.248
300.226
300.207
300.191
300.179
300.169
300.17
300.266
300.476
300.583
300.473
300.462
300.453
300.445
300.437
300.429
300.421
300.413
300.404
300.395
300.386
300.377
300.367
300.357
300.347
300.336
300.324
300.309
300.29
300.269
300.247
300.226
300.208
300.193
300.18
300.171
300.17
300.229
300.366
300.45
300.472
300.462
300.453
300.444
300.435
300.426
300.417
300.408
300.399
300.39
300.38
300.37
300.36
300.35
300.339
300.328
300.316
300.302
300.285
300.265
300.245
300.226
300.209
300.195
300.182
300.173
300.171
300.206
300.297
300.364
300.473
300.464
300.455
300.445
300.435
300.425
300.415
300.405
300.395
300.385
300.375
300.365
300.354
300.343
300.332
300.321
300.309
300.295
300.279
300.262
300.243
300.226
300.21
300.197
300.185
300.175
300.172
300.193
300.253
300.307
300.476
300.467
300.458
300.448
300.437
300.426
300.415
300.404
300.393
300.382
300.371
300.36
300.349
300.337
300.326
300.314
300.302
300.289
300.274
300.258
300.242
300.226
300.211
300.198
300.187
300.177
300.173
300.185
300.225
300.27
300.48
300.473
300.463
300.452
300.441
300.429
300.417
300.405
300.393
300.38
300.369
300.357
300.344
300.332
300.32
300.308
300.296
300.283
300.27
300.255
300.24
300.226
300.212
300.2
300.189
300.18
300.174
300.181
300.207
300.245
300.489
300.482
300.472
300.46
300.447
300.434
300.42
300.407
300.394
300.381
300.367
300.354
300.341
300.328
300.315
300.303
300.29
300.278
300.265
300.252
300.239
300.226
300.213
300.202
300.191
300.182
300.176
300.179
300.197
300.228
300.502
300.495
300.484
300.47
300.455
300.44
300.425
300.411
300.396
300.382
300.368
300.353
300.338
300.324
300.311
300.298
300.286
300.274
300.262
300.25
300.238
300.226
300.214
300.203
300.193
300.184
300.178
300.179
300.191
300.218
300.519
300.512
300.499
300.484
300.466
300.449
300.432
300.416
300.4
300.385
300.369
300.353
300.337
300.322
300.307
300.294
300.282
300.27
300.259
300.248
300.236
300.225
300.215
300.205
300.195
300.186
300.18
300.18
300.189
300.213
300.539
300.533
300.519
300.501
300.481
300.461
300.442
300.423
300.405
300.388
300.371
300.354
300.337
300.32
300.305
300.291
300.278
300.267
300.256
300.246
300.236
300.225
300.216
300.206
300.197
300.188
300.182
300.182
300.189
300.211
300.563
300.558
300.544
300.523
300.5
300.476
300.454
300.433
300.413
300.394
300.375
300.357
300.338
300.32
300.304
300.289
300.276
300.264
300.254
300.244
300.235
300.225
300.216
300.207
300.198
300.191
300.185
300.184
300.19
300.211
300.59
300.587
300.573
300.55
300.523
300.496
300.47
300.445
300.422
300.401
300.381
300.36
300.34
300.321
300.303
300.288
300.274
300.263
300.253
300.243
300.234
300.225
300.216
300.208
300.2
300.193
300.187
300.186
300.192
300.213
300.619
300.62
300.607
300.583
300.552
300.521
300.49
300.461
300.435
300.411
300.388
300.366
300.344
300.323
300.304
300.288
300.274
300.262
300.252
300.243
300.234
300.225
300.217
300.209
300.201
300.195
300.19
300.189
300.194
300.216
300.649
300.653
300.644
300.62
300.587
300.551
300.515
300.482
300.451
300.423
300.397
300.373
300.349
300.326
300.306
300.289
300.274
300.262
300.252
300.242
300.234
300.225
300.217
300.21
300.202
300.196
300.192
300.192
300.197
300.22
300.679
300.686
300.68
300.66
300.627
300.587
300.546
300.507
300.471
300.438
300.409
300.381
300.355
300.331
300.31
300.291
300.276
300.263
300.252
300.242
300.234
300.226
300.218
300.211
300.204
300.198
300.194
300.195
300.201
300.225
300.709
300.718
300.716
300.7
300.669
300.628
300.582
300.537
300.495
300.457
300.423
300.392
300.363
300.337
300.314
300.295
300.278
300.265
300.253
300.243
300.234
300.226
300.219
300.212
300.206
300.2
300.197
300.198
300.205
300.23
300.74
300.749
300.748
300.737
300.71
300.671
300.622
300.571
300.523
300.48
300.44
300.405
300.373
300.345
300.32
300.299
300.282
300.267
300.255
300.245
300.236
300.227
300.22
300.213
300.207
300.203
300.199
300.201
300.209
300.237
300.771
300.778
300.778
300.769
300.748
300.712
300.664
300.609
300.555
300.505
300.46
300.42
300.384
300.353
300.327
300.304
300.286
300.27
300.257
300.247
300.237
300.229
300.222
300.215
300.209
300.205
300.202
300.204
300.213
300.245
300.802
300.807
300.806
300.799
300.781
300.749
300.704
300.648
300.59
300.533
300.482
300.437
300.397
300.363
300.334
300.31
300.29
300.273
300.26
300.249
300.239
300.231
300.223
300.217
300.211
300.207
300.205
300.207
300.219
300.254
300.833
300.834
300.831
300.824
300.808
300.78
300.738
300.684
300.624
300.562
300.505
300.454
300.41
300.373
300.341
300.315
300.293
300.276
300.261
300.249
300.24
300.231
300.224
300.218
300.213
300.209
300.208
300.211
300.225
300.266
300.861
300.858
300.852
300.843
300.828
300.802
300.765
300.713
300.653
300.588
300.526
300.47
300.422
300.38
300.346
300.317
300.294
300.275
300.26
300.248
300.238
300.23
300.224
300.218
300.213
300.21
300.21
300.215
300.233
300.281
300.881
300.873
300.865
300.853
300.836
300.813
300.777
300.729
300.67
300.605
300.539
300.48
300.427
300.382
300.345
300.313
300.288
300.268
300.253
300.242
300.233
300.226
300.22
300.216
300.212
300.21
300.211
300.219
300.243
300.304
300.885
300.873
300.859
300.845
300.828
300.805
300.773
300.729
300.672
300.607
300.539
300.475
300.418
300.371
300.331
300.298
300.271
300.251
300.237
300.227
300.22
300.215
300.211
300.208
300.206
300.206
300.21
300.223
300.258
300.34
300.855
300.838
300.822
300.807
300.789
300.768
300.738
300.696
300.641
300.576
300.509
300.445
300.389
300.341
300.302
300.267
300.242
300.224
300.211
300.202
300.197
300.193
300.192
300.192
300.192
300.194
300.203
300.226
300.279
300.398
300.769
300.752
300.737
300.723
300.71
300.691
300.664
300.625
300.573
300.513
300.449
300.39
300.338
300.293
300.257
300.225
300.203
300.187
300.177
300.17
300.166
300.164
300.164
300.164
300.166
300.17
300.183
300.217
300.296
300.46
300.612
300.602
300.595
300.588
300.58
300.566
300.544
300.511
300.468
300.416
300.362
300.312
300.269
300.232
300.202
300.176
300.158
300.145
300.137
300.131
300.128
300.127
300.128
300.129
300.131
300.135
300.147
300.185
300.282
300.461
300.397
300.398
300.402
300.405
300.406
300.401
300.389
300.367
300.336
300.299
300.261
300.225
300.194
300.167
300.145
300.125
300.111
300.102
300.095
300.091
300.088
300.087
300.087
300.088
300.089
300.091
300.099
300.127
300.198
300.327
300.503
300.493
300.485
300.478
300.471
300.464
300.456
300.448
300.44
300.432
300.423
300.414
300.405
300.395
300.385
300.373
300.358
300.332
300.295
300.255
300.222
300.198
300.18
300.167
300.158
300.151
300.162
300.651
301.114
301.153
300.489
300.479
300.471
300.464
300.456
300.449
300.442
300.434
300.426
300.418
300.409
300.4
300.391
300.381
300.371
300.359
300.344
300.32
300.287
300.252
300.222
300.199
300.181
300.168
300.158
300.151
300.158
300.449
300.917
300.944
300.48
300.47
300.461
300.454
300.446
300.439
300.431
300.424
300.415
300.407
300.398
300.389
300.379
300.37
300.359
300.348
300.333
300.31
300.281
300.249
300.222
300.199
300.182
300.169
300.159
300.152
300.157
300.342
300.698
300.776
300.474
300.463
300.454
300.446
300.439