/*--------------------------------*- C++ -*----------------------------------*\
| =========                 |                                                 |
| \\      /  F ield         | OpenFOAM: The Open Source CFD Toolbox           |
|  \\    /   O peration     | Version:  5.0                                   |
|   \\  /    A nd           | Web:      www.OpenFOAM.org                      |
|    \\/     M anipulation  |                                                 |
\*---------------------------------------------------------------------------*/
FoamFile
{
    version     2.0;
    format      ascii;
    class       surfaceScalarField;
    location    "450/porous";
    object      phi;
}
// * * * * * * * * * * * * * * * * * * * * * * * * * * * * * * * * * * * * * //

dimensions      [1 0 -1 0 0 0 0];

internalField   nonuniform List<scalar> 
104700
(
7.63469e-05
2.58379e-06
8.7736e-05
4.58797e-05
1.53403e-06
2.89331e-05
3.349e-05
1.32405e-06
1.10657e-05
2.82039e-05
1.09915e-06
4.18698e-06
2.50882e-05
9.25619e-07
2.19001e-06
2.29209e-05
7.95643e-07
1.37166e-06
2.12657e-05
6.9608e-07
9.5913e-07
1.99381e-05
6.17638e-07
7.10017e-07
1.88402e-05
5.53769e-07
5.44131e-07
1.79117e-05
5.00404e-07
4.28084e-07
1.71129e-05
4.54876e-07
3.43889e-07
1.64163e-05
4.15386e-07
2.81187e-07
1.58021e-05
3.80676e-07
2.33552e-07
1.52555e-05
3.49838e-07
1.96797e-07
1.47652e-05
3.22197e-07
1.68084e-07
1.43225e-05
2.97242e-07
1.45431e-07
1.39205e-05
2.74578e-07
1.27416e-07
1.35536e-05
2.53892e-07
1.12996e-07
1.32173e-05
2.34936e-07
1.01392e-07
1.29078e-05
2.17507e-07
9.20115e-08
1.2622e-05
2.01438e-07
8.44013e-08
1.23572e-05
1.86589e-07
7.82077e-08
1.21112e-05
1.72842e-07
7.31542e-08
1.1882e-05
1.60095e-07
6.90196e-08
1.16682e-05
1.48261e-07
6.56281e-08
1.14681e-05
1.37263e-07
6.28425e-08
1.12805e-05
1.27035e-07
6.05453e-08
1.11043e-05
1.17515e-07
5.86457e-08
1.09386e-05
1.08659e-07
5.70683e-08
1.07824e-05
1.004e-07
5.57519e-08
1.0635e-05
9.27504e-08
5.46329e-08
1.04958e-05
8.55324e-08
5.37035e-08
1.03639e-05
7.90847e-08
5.28303e-08
1.02393e-05
7.23857e-08
5.2253e-08
1.012e-05
6.79846e-08
5.12268e-08
1.00092e-05
5.90116e-08
5.17929e-08
9.8981e-06
6.28206e-08
4.8319e-08
9.80281e-06
3.51632e-08
6.01336e-08
9.70017e-06
7.88385e-08
2.37932e-08
-2.61445e-08
3.17475e-07
7.78123e-05
1.68802e-06
8.97501e-05
4.84263e-05
1.30124e-06
2.96188e-05
3.67847e-05
1.23874e-06
1.17269e-05
3.20157e-05
1.08313e-06
4.78499e-06
2.9323e-05
9.49937e-07
2.66843e-06
2.74966e-05
8.41374e-07
1.78063e-06
2.61194e-05
7.5101e-07
1.32234e-06
2.50213e-05
6.75267e-07
1.04048e-06
2.41151e-05
6.10633e-07
8.49259e-07
2.33484e-05
5.54653e-07
7.1252e-07
2.26869e-05
5.05546e-07
6.10777e-07
2.21076e-05
4.62015e-07
5.32743e-07
2.15937e-05
4.23087e-07
4.7141e-07
2.11333e-05
3.88025e-07
4.22201e-07
2.07173e-05
3.56252e-07
3.82027e-07
2.03385e-05
3.27318e-07
3.48723e-07
1.99914e-05
3.00857e-07
3.20741e-07
1.96718e-05
2.76578e-07
2.9695e-07
1.9376e-05
2.54237e-07
2.765e-07
1.91011e-05
2.33635e-07
2.58748e-07
1.88448e-05
2.14601e-07
2.43199e-07
1.86049e-05
1.96993e-07
2.29462e-07
1.83798e-05
1.80686e-07
2.17234e-07
1.81681e-05
1.65571e-07
2.0627e-07
1.79684e-05
1.51555e-07
1.96373e-07
1.77797e-05
1.38554e-07
1.87382e-07
1.76011e-05
1.26495e-07
1.79167e-07
1.74317e-05
1.1531e-07
1.7162e-07
1.72708e-05
1.04949e-07
1.64651e-07
1.71176e-05
9.53404e-08
1.5818e-07
1.69717e-05
8.6495e-08
1.52154e-07
1.68326e-05
7.8222e-08
1.46498e-07
1.66995e-05
7.08827e-08
1.41215e-07
1.65724e-05
6.33643e-08
1.36145e-07
1.64503e-05
5.8466e-08
1.31583e-07
1.63342e-05
4.83448e-08
1.26788e-07
1.622e-05
5.36327e-08
1.23393e-07
1.61163e-05
1.74907e-08
1.2136e-07
1.60074e-05
8.74672e-08
1.00258e-07
-1.09208e-07
3.45249e-07
7.76222e-05
1.22991e-06
8.95025e-05
4.84082e-05
1.23644e-06
2.92788e-05
3.69389e-05
1.20918e-06
1.14989e-05
3.23082e-05
1.07743e-06
4.63645e-06
2.97455e-05
9.49173e-07
2.56345e-06
2.80398e-05
8.39594e-07
1.70742e-06
2.67759e-05
7.46495e-07
1.26841e-06
2.5785e-05
6.68118e-07
9.98028e-07
2.49806e-05
6.01613e-07
8.13427e-07
2.43105e-05
5.44571e-07
6.80247e-07
2.37408e-05
4.95077e-07
5.80162e-07
2.32485e-05
4.51651e-07
5.02615e-07
2.28174e-05
4.13161e-07
4.41066e-07
2.24354e-05
3.78739e-07
3.91248e-07
2.20937e-05
3.47712e-07
3.50266e-07
2.17854e-05
3.19556e-07
3.16088e-07
2.15051e-05
2.93859e-07
2.87251e-07
2.12487e-05
2.70294e-07
2.62672e-07
2.10128e-05
2.48599e-07
2.41535e-07
2.07947e-05
2.28562e-07
2.23214e-07
2.05921e-05
2.10009e-07
2.07223e-07
2.04031e-05
1.92797e-07
1.93172e-07
2.02262e-05
1.76804e-07
1.80757e-07
2.00601e-05
1.61928e-07
1.69725e-07
1.99037e-05
1.48081e-07
1.59872e-07
1.97561e-05
1.35188e-07
1.51032e-07
1.96163e-05
1.23185e-07
1.43065e-07
1.94838e-05
1.12011e-07
1.35852e-07
1.93578e-05
1.01627e-07
1.29297e-07
1.92378e-05
9.19694e-08
1.23314e-07
1.91234e-05
8.30589e-08
1.17837e-07
1.90142e-05
7.47166e-08
1.1279e-07
1.89096e-05
6.73086e-08
1.08163e-07
1.88094e-05
5.97492e-08
1.03805e-07
1.87131e-05
5.47931e-08
9.99652e-08
1.86208e-05
4.47718e-08
9.58734e-08
1.85309e-05
4.98584e-08
9.36585e-08
1.84462e-05
1.41748e-08
8.80139e-08
1.83601e-05
8.4949e-08
8.8603e-08
-1.22899e-07
1.98522e-07
7.73814e-05
8.69141e-07
8.96461e-05
4.81319e-05
1.03757e-06
2.94483e-05
3.66931e-05
1.04579e-06
1.16022e-05
3.21097e-05
9.57493e-07
4.70331e-06
2.95979e-05
8.57848e-07
2.60315e-06
2.79412e-05
7.66352e-07
1.72993e-06
2.67235e-05
6.85063e-07
1.27908e-06
2.57762e-05
6.14509e-07
1.00093e-06
2.50129e-05
5.53423e-07
8.11467e-07
2.43818e-05
5.00329e-07
6.75354e-07
2.38494e-05
4.5387e-07
5.7361e-07
2.33929e-05
4.12902e-07
4.9523e-07
2.29962e-05
3.76493e-07
4.33366e-07
2.26475e-05
3.43895e-07
3.83547e-07
2.2338e-05
3.14513e-07
3.42738e-07
2.20609e-05
2.87866e-07
3.08818e-07
2.18109e-05
2.63575e-07
2.80265e-07
2.15839e-05
2.41328e-07
2.55957e-07
2.13766e-05
2.20878e-07
2.35059e-07
2.11862e-05
2.02019e-07
2.1693e-07
2.10105e-05
1.84584e-07
2.01076e-07
2.08478e-05
1.68433e-07
1.87111e-07
2.06964e-05
1.5345e-07
1.74729e-07
2.05551e-05
1.39535e-07
1.63682e-07
2.04228e-05
1.26605e-07
1.53771e-07
2.02986e-05
1.14586e-07
1.44834e-07
2.01816e-05
1.03417e-07
1.36735e-07
2.00712e-05
9.3044e-08
1.29364e-07
1.99668e-05
8.34286e-08
1.22626e-07
1.98678e-05
7.45138e-08
1.16443e-07
1.97738e-05
6.63238e-08
1.10751e-07
1.96843e-05
5.86939e-08
1.05481e-07
1.9599e-05
5.19783e-08
1.00619e-07
1.95176e-05
4.51749e-08
9.60358e-08
1.94396e-05
4.08678e-08
9.19211e-08
1.93647e-05
3.20639e-08
8.76235e-08
1.92923e-05
3.71756e-08
8.50669e-08
1.92225e-05
6.69857e-09
7.72465e-08
1.91496e-05
7.00171e-08
8.78497e-08
-1.01095e-07
1.00641e-07
7.72584e-05
6.76336e-07
8.96011e-05
4.79939e-05
9.27346e-07
2.93747e-05
3.65735e-05
9.71905e-07
1.14944e-05
3.20109e-05
9.16791e-07
4.6033e-06
2.95174e-05
8.35222e-07
2.51607e-06
2.78758e-05
7.5205e-07
1.65594e-06
2.66708e-05
6.7422e-07
1.2158e-06
2.57347e-05
6.0465e-07
9.45995e-07
2.49817e-05
5.43508e-07
7.62924e-07
2.43603e-05
4.90044e-07
6.31637e-07
2.38374e-05
4.43242e-07
5.33522e-07
2.33904e-05
4.02096e-07
4.57868e-07
2.30031e-05
3.6571e-07
3.98064e-07
2.26638e-05
3.33326e-07
3.49814e-07
2.23638e-05
3.04314e-07
3.10218e-07
2.20963e-05
2.78162e-07
2.7725e-07
2.18559e-05
2.54452e-07
2.49464e-07
2.16386e-05
2.32845e-07
2.25791e-07
2.1441e-05
2.13067e-07
2.05436e-07
2.12603e-05
1.94894e-07
1.8779e-07
2.10944e-05
1.78141e-07
1.72378e-07
2.09413e-05
1.62658e-07
1.5883e-07
2.07996e-05
1.4832e-07
1.46849e-07
2.06679e-05
1.35021e-07
1.36199e-07
2.05452e-05
1.22673e-07
1.26683e-07
2.04304e-05
1.11202e-07
1.18143e-07
2.03229e-05
1.00546e-07
1.10448e-07
2.02218e-05
9.0651e-08
1.03487e-07
2.01265e-05
8.14798e-08
9.71669e-08
2.00367e-05
7.29801e-08
9.14111e-08
1.99517e-05
6.51757e-08
8.61525e-08
1.98711e-05
5.79221e-08
8.13287e-08
1.97946e-05
5.15473e-08
7.69102e-08
1.97218e-05
4.5173e-08
7.2804e-08
1.96525e-05
4.11046e-08
6.91048e-08
1.95858e-05
3.33515e-08
6.53725e-08
1.95223e-05
3.75784e-08
6.30795e-08
1.94606e-05
1.3393e-08
5.50888e-08
1.93952e-05
6.3703e-08
7.16733e-08
-6.03288e-08
2.8012e-08
7.71839e-05
5.19234e-07
8.96399e-05
4.78783e-05
7.76906e-07
2.9456e-05
3.64421e-05
8.3619e-07
1.1572e-05
3.18787e-05
8.04959e-07
4.67516e-06
2.93914e-05
7.43187e-07
2.57942e-06
2.77584e-05
6.74627e-07
1.71039e-06
2.65629e-05
6.07811e-07
1.26191e-06
2.56361e-05
5.46582e-07
9.84847e-07
2.48919e-05
4.91929e-07
7.95748e-07
2.42788e-05
4.43663e-07
6.59542e-07
2.37634e-05
4.01152e-07
5.57445e-07
2.33233e-05
3.63639e-07
4.78582e-07
2.29424e-05
3.30399e-07
4.16184e-07
2.26091e-05
3.00787e-07
3.65825e-07
2.23147e-05
2.74252e-07
3.24501e-07
2.20524e-05
2.50337e-07
2.90105e-07
2.18171e-05
2.28666e-07
2.6112e-07
2.16046e-05
2.08928e-07
2.36433e-07
2.14116e-05
1.90874e-07
2.15201e-07
2.12354e-05
1.74296e-07
1.96786e-07
2.10738e-05
1.59025e-07
1.80692e-07
2.0925e-05
1.44922e-07
1.66529e-07
2.07875e-05
1.3187e-07
1.53986e-07
2.06599e-05
1.19774e-07
1.42815e-07
2.05412e-05
1.08552e-07
1.32813e-07
2.04305e-05
9.81355e-08
1.23813e-07
2.03269e-05
8.84692e-08
1.1568e-07
2.02297e-05
7.95039e-08
1.08301e-07
2.01384e-05
7.12078e-08
1.01579e-07
2.00524e-05
6.35353e-08
9.54342e-08
1.99713e-05
5.65118e-08
8.98005e-08
1.98946e-05
5.00156e-08
8.46146e-08
1.98219e-05
4.4345e-08
7.98367e-08
1.97529e-05
3.87646e-08
7.54047e-08
1.96874e-05
3.52652e-08
7.13257e-08
1.96245e-05
2.89627e-08
6.73606e-08
1.95649e-05
3.26419e-08
6.44869e-08
1.95071e-05
1.50987e-08
5.60778e-08
1.94427e-05
5.42279e-08
7.3865e-08
-2.7912e-08
2.88912e-09
7.71344e-05
4.18799e-07
8.96327e-05
4.78011e-05
6.65806e-07
2.94444e-05
3.63597e-05
7.38728e-07
1.15389e-05
3.18013e-05
7.28504e-07
4.63483e-06
2.93215e-05
6.84088e-07
2.53887e-06
2.76961e-05
6.27792e-07
1.67223e-06
2.65073e-05
5.69486e-07
1.22714e-06
2.55861e-05
5.14088e-07
9.53664e-07
2.48466e-05
4.63518e-07
7.67969e-07
2.42372e-05
4.18245e-07
6.348e-07
2.3725e-05
3.78059e-07
5.3532e-07
2.32875e-05
3.42468e-07
4.58663e-07
2.29089e-05
3.10906e-07
3.98101e-07
2.25776e-05
2.82818e-07
3.49261e-07
2.22849e-05
2.57707e-07
3.09186e-07
2.20243e-05
2.35143e-07
2.7582e-07
2.17905e-05
2.14762e-07
2.47685e-07
2.15795e-05
1.96262e-07
2.237e-07
2.13879e-05
1.79393e-07
2.03057e-07
2.12131e-05
1.6395e-07
1.85137e-07
2.10529e-05
1.49762e-07
1.69466e-07
2.09055e-05
1.36689e-07
1.55668e-07
2.07693e-05
1.24615e-07
1.43444e-07
2.06431e-05
1.13443e-07
1.32557e-07
2.05257e-05
1.03092e-07
1.22811e-07
2.04163e-05
9.34957e-08
1.14048e-07
2.0314e-05
8.45985e-08
1.06135e-07
2.02182e-05
7.63523e-08
9.89639e-08
2.01283e-05
6.87282e-08
9.244e-08
2.00436e-05
6.16852e-08
8.64884e-08
1.99639e-05
5.52462e-08
8.10425e-08
1.98885e-05
4.93112e-08
7.60438e-08
1.98173e-05
4.41426e-08
7.1443e-08
1.97497e-05
3.91489e-08
6.72054e-08
1.96857e-05
3.59852e-08
6.32734e-08
1.96242e-05
3.08289e-08
5.9583e-08
1.95665e-05
3.36786e-08
5.67054e-08
1.95115e-05
2.13835e-08
4.87336e-08
1.94491e-05
5.03076e-08
6.63391e-08
-1.96902e-09
-1.65358e-08
7.71072e-05
3.33323e-07
8.9645e-05
4.77479e-05
5.50838e-07
2.94742e-05
3.62918e-05
6.23614e-07
1.15713e-05
3.17276e-05
6.24066e-07
4.66859e-06
2.92469e-05
5.91961e-07
2.57284e-06
2.76232e-05
5.46644e-07
1.70482e-06
2.64375e-05
4.97718e-07
1.25747e-06
2.55201e-05
4.50164e-07
9.81381e-07
2.47843e-05
4.06178e-07
7.93049e-07
2.41787e-05
3.66494e-07
6.57389e-07
2.367e-05
3.31118e-07
5.55649e-07
2.32357e-05
2.99725e-07
4.76992e-07
2.28601e-05
2.71867e-07
4.14685e-07
2.25315e-05
2.47081e-07
3.64337e-07
2.22413e-05
2.24938e-07
3.22968e-07
2.19829e-05
2.05059e-07
2.8849e-07
2.17511e-05
1.87122e-07
2.594e-07
2.15419e-05
1.70856e-07
2.34593e-07
2.13521e-05
1.56037e-07
2.13237e-07
2.11788e-05
1.42481e-07
1.94697e-07
2.10201e-05
1.30035e-07
1.78481e-07
2.0874e-05
1.18574e-07
1.64199e-07
2.07391e-05
1.07994e-07
1.51545e-07
2.0614e-05
9.82096e-08
1.40268e-07
2.04978e-05
8.91493e-08
1.30166e-07
2.03895e-05
8.0754e-08
1.21077e-07
2.02882e-05
7.29752e-08
1.12862e-07
2.01934e-05
6.57723e-08
1.05405e-07
2.01044e-05
5.91208e-08
9.86134e-08
2.00207e-05
5.29875e-08
9.24074e-08
1.99418e-05
4.73952e-08
8.67169e-08
1.98674e-05
4.22672e-08
8.14854e-08
1.97971e-05
3.78295e-08
7.66533e-08
1.97304e-05
3.36261e-08
7.22084e-08
1.96673e-05
3.10017e-08
6.8031e-08
1.96069e-05
2.70712e-08
6.41936e-08
1.95502e-05
2.94707e-08
6.09177e-08
1.94971e-05
2.15108e-08
5.29524e-08
1.94343e-05
4.33711e-08
6.97022e-08
1.1704e-08
-1.89051e-08
7.70866e-05
2.69007e-07
8.96444e-05
4.77072e-05
4.56066e-07
2.94742e-05
3.62416e-05
5.26899e-07
1.15623e-05
3.16757e-05
5.36106e-07
4.65387e-06
2.91969e-05
5.15226e-07
2.55554e-06
2.75768e-05
4.80367e-07
1.68639e-06
2.63951e-05
4.40407e-07
1.23897e-06
2.54816e-05
4.00232e-07
9.63466e-07
2.47494e-05
3.62255e-07
7.76108e-07
2.41468e-05
3.27491e-07
6.41601e-07
2.36407e-05
2.96198e-07
5.41064e-07
2.32086e-05
2.68254e-07
4.63577e-07
2.28347e-05
2.43365e-07
4.02366e-07
2.25076e-05
2.21179e-07
3.53015e-07
2.22186e-05
2.01349e-07
3.12539e-07
2.19613e-05
1.83553e-07
2.78852e-07
2.17304e-05
1.67513e-07
2.50456e-07
2.15221e-05
1.52989e-07
2.26259e-07
2.13329e-05
1.39779e-07
2.05436e-07
2.11603e-05
1.27716e-07
1.87362e-07
2.10021e-05
1.16661e-07
1.71555e-07
2.08565e-05
1.06497e-07
1.57633e-07
2.07221e-05
9.71291e-08
1.45297e-07
2.05975e-05
8.84775e-08
1.34306e-07
2.04818e-05
8.04762e-08
1.24459e-07
2.03738e-05
7.30703e-08
1.156e-07
2.0273e-05
6.62158e-08
1.07594e-07
2.01786e-05
5.9875e-08
1.00331e-07
2.00899e-05
5.40255e-08
9.37183e-08
2.00066e-05
4.86395e-08
8.76789e-08
1.99281e-05
4.37363e-08
8.21438e-08
1.98541e-05
3.92584e-08
7.70645e-08
1.97841e-05
3.53933e-08
7.23713e-08
1.97179e-05
3.18014e-08
6.80734e-08
1.96553e-05
2.95409e-08
6.40051e-08
1.95956e-05
2.64952e-08
6.03583e-08
1.95396e-05
2.83267e-08
5.70963e-08
1.94883e-05
2.32581e-08
4.95387e-08
1.94268e-05
3.91907e-08
6.57545e-08
2.01964e-08
-2.5457e-08
7.7075e-05
2.11936e-07
8.96488e-05
4.76803e-05
3.65207e-07
2.94855e-05
3.62044e-05
4.27615e-07
1.15751e-05
3.16333e-05
4.39349e-07
4.66786e-06
2.91524e-05
4.25255e-07
2.57086e-06
2.75322e-05
3.98263e-07
1.70232e-06
2.63516e-05
3.66073e-07
1.25491e-06
2.54398e-05
3.33062e-07
9.79004e-07
2.47096e-05
3.01508e-07
7.90959e-07
2.4109e-05
2.72444e-07
6.55608e-07
2.36049e-05
2.46203e-07
5.54153e-07
2.31747e-05
2.22743e-07
4.75738e-07
2.28025e-05
2.01853e-07
4.13628e-07
2.2477e-05
1.83251e-07
3.63433e-07
2.21896e-05
1.66646e-07
3.22177e-07
2.19336e-05
1.51769e-07
2.87782e-07
2.17039e-05
1.38379e-07
2.58751e-07
2.14967e-05
1.26271e-07
2.33982e-07
2.13085e-05
1.15273e-07
2.1265e-07
2.11369e-05
1.0524e-07
1.94125e-07
2.09796e-05
9.60515e-08
1.77915e-07
2.08348e-05
8.76102e-08
1.63635e-07
2.07011e-05
7.98341e-08
1.50977e-07
2.05773e-05
7.2656e-08
1.39696e-07
2.04621e-05
6.60198e-08
1.29592e-07
2.03548e-05
5.98801e-08
1.20496e-07
2.02546e-05
5.41999e-08
1.12276e-07
2.01607e-05
4.89488e-08
1.04816e-07
2.00726e-05
4.41096e-08
9.80215e-08
1.99897e-05
3.96602e-08
9.1813e-08
1.99117e-05
3.56192e-08
8.61191e-08
1.98382e-05
3.19454e-08
8.08911e-08
1.97687e-05
2.87925e-08
7.60536e-08
1.9703e-05
2.59175e-08
7.16265e-08
1.9641e-05
2.41355e-08
6.74107e-08
1.95818e-05
2.19417e-08
6.36741e-08
1.95265e-05
2.34611e-08
6.01761e-08
1.94766e-05
2.05501e-08
5.26455e-08
1.94149e-05
3.25159e-08
6.83504e-08
2.16991e-08
-2.46659e-08
7.70659e-05
1.63594e-07
8.96492e-05
4.76591e-05
2.84858e-07
2.94871e-05
3.61757e-05
3.3775e-07
1.15733e-05
3.16013e-05
3.50611e-07
4.66307e-06
2.91199e-05
3.4239e-07
2.56427e-06
2.75008e-05
3.22914e-07
1.69443e-06
2.63223e-05
2.98448e-07
1.2462e-06
2.54128e-05
2.72676e-07
9.69888e-07
2.46849e-05
2.47616e-07
7.81771e-07
2.40865e-05
2.24259e-07
6.46581e-07
2.35843e-05
2.0299e-07
5.45444e-07
2.31557e-05
1.8386e-07
4.67443e-07
2.2785e-05
1.66751e-07
4.05795e-07
2.24607e-05
1.51471e-07
3.56081e-07
2.21743e-05
1.37805e-07
3.153e-07
2.19191e-05
1.25548e-07
2.81361e-07
2.16902e-05
1.14511e-07
2.52756e-07
2.14836e-05
1.04531e-07
2.28383e-07
2.1296e-05
9.54681e-08
2.07412e-07
2.11248e-05
8.72056e-08
1.89213e-07
2.09679e-05
7.96452e-08
1.73298e-07
2.08235e-05
7.27048e-08
1.59285e-07
2.06902e-05
6.6317e-08
1.46866e-07
2.05666e-05
6.04252e-08
1.35803e-07
2.04518e-05
5.49831e-08
1.25891e-07
2.03447e-05
4.99521e-08
1.16974e-07
2.02447e-05
4.5302e-08
1.08912e-07
2.0151e-05
4.10068e-08
1.01599e-07
2.00632e-05
3.70513e-08
9.49374e-08
1.99805e-05
3.34192e-08
8.88523e-08
1.99028e-05
3.01249e-08
8.32728e-08
1.98294e-05
2.71398e-08
7.81518e-08
1.97602e-05
2.45833e-08
7.34126e-08
1.96948e-05
2.22876e-08
6.90874e-08
1.96331e-05
2.08551e-08
6.49486e-08
1.95745e-05
1.92475e-08
6.13337e-08
1.95197e-05
2.03678e-08
5.78586e-08
1.9471e-05
1.87083e-08
5.05827e-08
1.94102e-05
2.72154e-08
6.6005e-08
2.10385e-08
-2.80077e-08
7.70605e-05
1.18922e-07
8.96509e-05
4.76453e-05
2.08343e-07
2.94917e-05
3.61555e-05
2.4902e-07
1.15785e-05
3.15776e-05
2.59885e-07
4.66868e-06
2.90944e-05
2.54857e-07
2.5707e-06
2.74749e-05
2.40971e-07
1.7015e-06
2.62966e-05
2.22998e-07
1.25368e-06
2.53879e-05
2.038e-07
9.77572e-07
2.46611e-05
1.8499e-07
7.89473e-07
2.40638e-05
1.67388e-07
6.54151e-07
2.35627e-05
1.51334e-07
5.52775e-07
2.31352e-05
1.36892e-07
4.7446e-07
2.27655e-05
1.23987e-07
4.12456e-07
2.24421e-05
1.12479e-07
3.62363e-07
2.21565e-05
1.02205e-07
3.21201e-07
2.19022e-05
9.3007e-08
2.86889e-07
2.1674e-05
8.47403e-08
2.5793e-07
2.14681e-05
7.72779e-08
2.33222e-07
2.12811e-05
7.05111e-08
2.11944e-07
2.11105e-05
6.4349e-08
1.93461e-07
2.09541e-05
5.87161e-08
1.77288e-07
2.08102e-05
5.35493e-08
1.63039e-07
2.06773e-05
4.87964e-08
1.50408e-07
2.05542e-05
4.44147e-08
1.39151e-07
2.04397e-05
4.03691e-08
1.29065e-07
2.03331e-05
3.66301e-08
1.19987e-07
2.02334e-05
3.31753e-08
1.11782e-07
2.01401e-05
2.99855e-08
1.04336e-07
2.00526e-05
2.70501e-08
9.75546e-08
1.99703e-05
2.43579e-08
9.13582e-08
1.98928e-05
2.19199e-08
8.56758e-08
1.98197e-05
1.97188e-08
8.046e-08
1.97509e-05
1.78419e-08
7.56285e-08
1.96857e-05
1.61813e-08
7.12241e-08
1.96244e-05
1.51609e-08
6.6994e-08
1.95663e-05
1.40997e-08
6.33204e-08
1.9512e-05
1.49622e-08
5.97119e-08
1.94641e-05
1.41708e-08
5.24363e-08
1.94035e-05
2.02232e-08
6.76e-08
1.69802e-08
-2.73057e-08
7.70565e-05
7.7916e-08
8.96512e-05
4.7635e-05
1.3693e-07
2.94929e-05
3.61408e-05
1.64867e-07
1.15784e-05
3.15604e-05
1.72952e-07
4.66733e-06
2.90763e-05
1.70478e-07
2.56847e-06
2.74569e-05
1.61877e-07
1.6985e-06
2.62795e-05
1.50343e-07
1.25007e-06
2.53719e-05
1.37812e-07
9.73537e-07
2.46463e-05
1.25401e-07
7.85171e-07
2.40503e-05
1.13697e-07
6.49725e-07
2.35503e-05
1.02959e-07
5.48336e-07
2.31239e-05
9.32552e-08
4.70093e-07
2.27551e-05
8.4552e-08
4.08222e-07
2.24325e-05
7.67676e-08
3.58303e-07
2.21476e-05
6.98023e-08
3.17338e-07
2.18938e-05
6.35555e-08
2.83234e-07
2.16661e-05
5.79338e-08
2.54483e-07
2.14606e-05
5.28544e-08
2.29981e-07
2.12739e-05
4.8246e-08
2.08898e-07
2.11036e-05
4.40487e-08
1.90599e-07
2.09475e-05
4.02113e-08
1.74596e-07
2.08039e-05
3.6692e-08
1.60504e-07
2.06712e-05
3.34561e-08
1.48018e-07
2.05483e-05
3.04738e-08
1.36891e-07
2.0434e-05
2.77212e-08
1.26926e-07
2.03275e-05
2.51791e-08
1.17957e-07
2.0228e-05
2.2831e-08
1.0985e-07
2.01348e-05
2.06646e-08
1.02494e-07
2.00474e-05
1.86722e-08
9.57966e-08
1.99652e-05
1.68461e-08
8.9676e-08
1.98879e-05
1.51937e-08
8.40615e-08
1.9815e-05
1.37049e-08
7.89115e-08
1.97462e-05
1.24366e-08
7.41384e-08
1.96813e-05
1.1324e-08
6.97919e-08
1.96202e-05
1.06356e-08
6.56095e-08
1.95624e-05
9.96121e-09
6.2005e-08
1.95084e-05
1.05042e-08
5.84146e-08
1.94612e-05
1.01254e-08
5.12745e-08
1.94012e-05
1.38811e-08
6.62978e-08
1.21891e-08
-2.91155e-08
7.70544e-05
3.84662e-08
8.96517e-05
4.76291e-05
6.76208e-08
2.94946e-05
3.61318e-05
8.17628e-08
1.15803e-05
3.15496e-05
8.58605e-08
4.66932e-06
2.90645e-05
8.47274e-08
2.57081e-06
2.74448e-05
8.04675e-08
1.70115e-06
2.62675e-05
7.46979e-08
1.25298e-06
2.53602e-05
6.84021e-08
9.76629e-07
2.46351e-05
6.21541e-08
7.88373e-07
2.40396e-05
5.6259e-08
6.52967e-07
2.35401e-05
5.08537e-08
5.51556e-07
2.31142e-05
4.59752e-08
4.73244e-07
2.27459e-05
4.1608e-08
4.11267e-07
2.24237e-05
3.77104e-08
3.61216e-07
2.21392e-05
3.42304e-08
3.20107e-07
2.18858e-05
3.11167e-08
2.8585e-07
2.16584e-05
2.832e-08
2.56946e-07
2.14532e-05
2.57981e-08
2.32294e-07
2.12668e-05
2.35141e-08
2.11067e-07
2.10968e-05
2.14363e-08
1.92632e-07
2.0941e-05
1.95389e-08
1.76504e-07
2.07976e-05
1.78004e-08
1.62296e-07
2.06651e-05
1.62028e-08
1.49703e-07
2.05424e-05
1.47318e-08
1.38477e-07
2.04283e-05
1.33747e-08
1.28421e-07
2.0322e-05
1.21216e-08
1.19371e-07
2.02227e-05
1.09648e-08
1.1119e-07
2.01297e-05
9.89763e-09
1.03767e-07
2.00424e-05
8.91699e-09
9.70056e-08
1.99604e-05
8.01884e-09
9.08281e-08
1.98833e-05
7.20721e-09
8.51625e-08
1.98105e-05
6.47757e-09
7.99638e-08
1.9742e-05
5.85829e-09
7.51452e-08
1.96772e-05
5.31962e-09
7.07578e-08
1.96163e-05
4.99172e-09
6.65297e-08
1.95587e-05
4.68357e-09
6.28964e-08
1.9505e-05
4.96896e-09
5.9244e-08
1.94582e-05
4.8525e-09
5.20989e-08
1.93983e-05
6.72528e-09
6.70002e-08
6.05591e-09
-2.88391e-08
7.70533e-05
-1.68151e-13
8.96518e-05
4.76259e-05
-1.08864e-13
2.9495e-05
3.61273e-05
-4.71703e-14
1.15804e-05
3.15442e-05
-1.77414e-13
4.66896e-06
2.90587e-05
9.67541e-14
2.57015e-06
2.7439e-05
-1.34109e-14
1.70023e-06
2.62619e-05
-4.49623e-15
1.25181e-06
2.5355e-05
1.61782e-13
9.75263e-07
2.46303e-05
-1.635e-13
7.86864e-07
2.40352e-05
-2.15942e-13
6.51362e-07
2.35362e-05
4.39758e-15
5.49897e-07
2.31106e-05
6.66657e-14
4.71566e-07
2.27426e-05
-3.04843e-14
4.09598e-07
2.24207e-05
6.84042e-14
3.59577e-07
2.21364e-05
1.41665e-13
3.18512e-07
2.18832e-05
-7.55378e-14
2.84307e-07
2.16561e-05
8.94707e-14
2.55463e-07
2.1451e-05
-5.8835e-14
2.30872e-07
2.12648e-05
3.70098e-14
2.09705e-07
2.10949e-05
2.89377e-14
1.91332e-07
2.09392e-05
-2.20161e-14
1.75261e-07
2.07959e-05
2.03875e-13
1.61107e-07
2.06635e-05
8.94744e-14
1.48565e-07
2.05409e-05
1.53924e-13
1.37388e-07
2.04269e-05
2.36728e-13
1.27377e-07
2.03206e-05
7.2114e-14
1.18368e-07
2.02214e-05
1.73583e-13
1.10228e-07
2.01284e-05
2.56019e-13
1.02839e-07
2.00412e-05
4.91769e-13
9.61115e-08
1.99593e-05
2.27657e-13
8.99658e-08
1.98822e-05
2.49027e-13
8.4329e-08
1.98095e-05
1.71941e-13
7.91588e-08
1.9741e-05
2.78831e-13
7.43663e-08
1.96763e-05
1.30816e-13
7.00041e-08
1.96155e-05
1.62244e-13
6.57983e-08
1.9558e-05
1.53458e-13
6.21924e-08
1.95044e-05
1.53623e-13
5.85512e-08
1.94578e-05
-2.38046e-14
5.14572e-08
1.93982e-05
1.66248e-13
6.62878e-08
2.14067e-13
-2.97322e-08
7.70533e-05
-3.84663e-08
8.96518e-05
4.76259e-05
-6.76209e-08
2.9495e-05
3.61273e-05
-8.1763e-08
1.15804e-05
3.15442e-05
-8.58603e-08
4.66896e-06
2.90587e-05
-8.47274e-08
2.57015e-06
2.7439e-05
-8.04673e-08
1.70023e-06
2.62619e-05
-7.46979e-08
1.25181e-06
2.5355e-05
-6.84024e-08
9.75264e-07
2.46303e-05
-6.21542e-08
7.86863e-07
2.40352e-05
-5.62592e-08
6.51361e-07
2.35362e-05
-5.08536e-08
5.49897e-07
2.31106e-05
-4.59752e-08
4.71566e-07
2.27426e-05
-4.16079e-08
4.09598e-07
2.24207e-05
-3.77101e-08
3.59577e-07
2.21364e-05
-3.42302e-08
3.18512e-07
2.18832e-05
-3.11164e-08
2.84308e-07
2.16561e-05
-2.83201e-08
2.55463e-07
2.1451e-05
-2.57978e-08
2.30872e-07
2.12648e-05
-2.35137e-08
2.09705e-07
2.10949e-05
-2.14359e-08
1.91331e-07
2.09392e-05
-1.95386e-08
1.7526e-07
2.07959e-05
-1.78006e-08
1.61107e-07
2.06635e-05
-1.6203e-08
1.48564e-07
2.05409e-05
-1.47316e-08
1.37388e-07
2.04269e-05
-1.33745e-08
1.27377e-07
2.03206e-05
-1.21215e-08
1.18368e-07
2.02214e-05
-1.09644e-08
1.10226e-07
2.01284e-05
-9.89718e-09
1.02839e-07
2.00412e-05
-8.91664e-09
9.6112e-08
1.99593e-05
-8.01855e-09
8.99655e-08
1.98822e-05
-7.20701e-09
8.43303e-08
1.98095e-05
-6.47734e-09
7.91585e-08
1.9741e-05
-5.85819e-09
7.43654e-08
1.96763e-05
-5.31931e-09
7.00044e-08
1.96155e-05
-4.99126e-09
6.5799e-08
1.9558e-05
-4.68328e-09
6.2192e-08
1.95044e-05
-4.96866e-09
5.85515e-08
1.94578e-05
-4.85219e-09
5.14572e-08
1.93982e-05
-6.72522e-09
6.6287e-08
-6.05579e-09
-2.97324e-08
7.70544e-05
-7.7916e-08
8.96517e-05
4.76291e-05
-1.3693e-07
2.94946e-05
3.61318e-05
-1.64867e-07
1.15803e-05
3.15496e-05
-1.72951e-07
4.66932e-06
2.90645e-05
-1.70478e-07
2.57081e-06
2.74448e-05
-1.61877e-07
1.70115e-06
2.62675e-05
-1.50343e-07
1.25298e-06
2.53602e-05
-1.37812e-07
9.76629e-07
2.46351e-05
-1.25401e-07
7.88373e-07
2.40396e-05
-1.13697e-07
6.52966e-07
2.35401e-05
-1.02959e-07
5.51555e-07
2.31142e-05
-9.32551e-08
4.73243e-07
2.27459e-05
-8.45519e-08
4.11266e-07
2.24237e-05
-7.67675e-08
3.61215e-07
2.21392e-05
-6.98023e-08
3.20106e-07
2.18858e-05
-6.35555e-08
2.85849e-07
2.16584e-05
-5.79334e-08
2.56947e-07
2.14532e-05
-5.28541e-08
2.32294e-07
2.12668e-05
-4.82457e-08
2.11066e-07
2.10968e-05
-4.40483e-08
1.92633e-07
2.0941e-05
-4.02111e-08
1.76505e-07
2.07976e-05
-3.66919e-08
1.62296e-07
2.06651e-05
-3.34559e-08
1.49702e-07
2.05424e-05
-3.04736e-08
1.38477e-07
2.04283e-05
-2.77212e-08
1.28421e-07
2.0322e-05
-2.51789e-08
1.19371e-07
2.02227e-05
-2.28309e-08
1.11191e-07
2.01297e-05
-2.06643e-08
1.03767e-07
2.00424e-05
-1.86718e-08
9.70054e-08
1.99604e-05
-1.68457e-08
9.08286e-08
1.98833e-05
-1.51934e-08
8.51615e-08
1.98105e-05
-1.37045e-08
7.99636e-08
1.9742e-05
-1.24361e-08
7.51441e-08
1.96772e-05
-1.13234e-08
7.07584e-08
1.96163e-05
-1.06352e-08
6.65309e-08
1.95587e-05
-9.96101e-09
6.28964e-08
1.9505e-05
-1.05041e-08
5.92439e-08
1.94582e-05
-1.01254e-08
5.20988e-08
1.93983e-05
-1.38809e-08
6.70003e-08
-1.21891e-08
-2.8839e-08
7.70565e-05
-1.18922e-07
8.96512e-05
4.7635e-05
-2.08343e-07
2.94929e-05
3.61408e-05
-2.4902e-07
1.15784e-05
3.15604e-05
-2.59885e-07
4.66733e-06
2.90763e-05
-2.54857e-07
2.56847e-06
2.74569e-05
-2.40971e-07
1.6985e-06
2.62795e-05
-2.22998e-07
1.25007e-06
2.53719e-05
-2.038e-07
9.73536e-07
2.46463e-05
-1.8499e-07
7.85171e-07
2.40503e-05
-1.67389e-07
6.49724e-07
2.35503e-05
-1.51334e-07
5.48336e-07
2.31239e-05
-1.36892e-07
4.70093e-07
2.27551e-05
-1.23987e-07
4.08223e-07
2.24325e-05
-1.12479e-07
3.58303e-07
2.21476e-05
-1.02205e-07
3.17339e-07
2.18938e-05
-9.30069e-08
2.83234e-07
2.16661e-05
-8.47403e-08
2.54484e-07
2.14606e-05
-7.72777e-08
2.29982e-07
2.12739e-05
-7.05111e-08
2.08896e-07
2.11036e-05
-6.43489e-08
1.90599e-07
2.09475e-05
-5.87161e-08
1.74596e-07
2.08039e-05
-5.35491e-08
1.60505e-07
2.06712e-05
-4.87962e-08
1.48018e-07
2.05483e-05
-4.44146e-08
1.36892e-07
2.0434e-05
-4.03688e-08
1.26926e-07
2.03275e-05
-3.66296e-08
1.17956e-07
2.0228e-05
-3.31751e-08
1.0985e-07
2.01348e-05
-2.99853e-08
1.02495e-07
2.00474e-05
-2.70499e-08
9.57953e-08
1.99652e-05
-2.43575e-08
8.96757e-08
1.98879e-05
-2.19195e-08
8.40621e-08
1.9815e-05
-1.97184e-08
7.89112e-08
1.97462e-05
-1.78417e-08
7.41389e-08
1.96813e-05
-1.61811e-08
6.97921e-08
1.96202e-05
-1.51606e-08
6.56101e-08
1.95624e-05
-1.40994e-08
6.2005e-08
1.95084e-05
-1.49623e-08
5.84151e-08
1.94612e-05
-1.41704e-08
5.12732e-08
1.94012e-05
-2.02228e-08
6.62982e-08
-1.69801e-08
-2.91157e-08
7.70605e-05
-1.63594e-07
8.96509e-05
4.76453e-05
-2.84859e-07
2.94917e-05
3.61555e-05
-3.3775e-07
1.15785e-05
3.15776e-05
-3.50611e-07
4.66868e-06
2.90944e-05
-3.4239e-07
2.5707e-06
2.74749e-05
-3.22914e-07
1.7015e-06
2.62966e-05
-2.98448e-07
1.25368e-06
2.53879e-05
-2.72676e-07
9.77573e-07
2.46611e-05
-2.47616e-07
7.89472e-07
2.40638e-05
-2.24259e-07
6.54151e-07
2.35627e-05
-2.0299e-07
5.52775e-07
2.31352e-05
-1.8386e-07
4.7446e-07
2.27655e-05
-1.66751e-07
4.12455e-07
2.24421e-05
-1.5147e-07
3.62362e-07
2.21565e-05
-1.37805e-07
3.21201e-07
2.19022e-05
-1.25547e-07
2.86889e-07
2.1674e-05
-1.14511e-07
2.5793e-07
2.14681e-05
-1.04531e-07
2.33223e-07
2.12811e-05
-9.54679e-08
2.11942e-07
2.11105e-05
-8.72056e-08
1.93462e-07
2.09541e-05
-7.96447e-08
1.77288e-07
2.08102e-05
-7.27046e-08
1.63039e-07
2.06773e-05
-6.63167e-08
1.50409e-07
2.05542e-05
-6.0425e-08
1.3915e-07
2.04397e-05
-5.4983e-08
1.29064e-07
2.03331e-05
-4.99523e-08
1.19987e-07
2.02334e-05
-4.53019e-08
1.11782e-07
2.01401e-05
-4.10066e-08
1.04336e-07
2.00526e-05
-3.70514e-08
9.75549e-08
1.99703e-05
-3.3419e-08
9.13592e-08
1.98928e-05
-3.01247e-08
8.56761e-08
1.98197e-05
-2.71399e-08
8.04598e-08
1.97509e-05
-2.45832e-08
7.56293e-08
1.96857e-05
-2.22873e-08
7.12226e-08
1.96244e-05
-2.08546e-08
6.69936e-08
1.95663e-05
-1.92474e-08
6.33215e-08
1.9512e-05
-2.03676e-08
5.97113e-08
1.94641e-05
-1.87078e-08
5.24374e-08
1.94035e-05
-2.72149e-08
6.75998e-08
-2.10384e-08
-2.7306e-08
7.70659e-05
-2.11936e-07
8.96492e-05
4.76591e-05
-3.65207e-07
2.94871e-05
3.61757e-05
-4.27615e-07
1.15733e-05
3.16013e-05
-4.39349e-07
4.66307e-06
2.91199e-05
-4.25255e-07
2.56427e-06
2.75008e-05
-3.98263e-07
1.69443e-06
2.63223e-05
-3.66073e-07
1.2462e-06
2.54128e-05
-3.33062e-07
9.69888e-07
2.46849e-05
-3.01508e-07
7.81771e-07
2.40865e-05
-2.72444e-07
6.46581e-07
2.35843e-05
-2.46202e-07
5.45444e-07
2.31557e-05
-2.22743e-07
4.67442e-07
2.2785e-05
-2.01853e-07
4.05796e-07
2.24607e-05
-1.83251e-07
3.56081e-07
2.21743e-05
-1.66646e-07
3.15301e-07
2.19191e-05
-1.51769e-07
2.81361e-07
2.16902e-05
-1.38379e-07
2.52755e-07
2.14836e-05
-1.26271e-07
2.28382e-07
2.1296e-05
-1.15273e-07
2.07411e-07
2.11248e-05
-1.05239e-07
1.89213e-07
2.09679e-05
-9.60512e-08
1.73298e-07
2.08235e-05
-8.761e-08
1.59285e-07
2.06902e-05
-7.9834e-08
1.46866e-07
2.05666e-05
-7.26558e-08
1.35802e-07
2.04518e-05
-6.60198e-08
1.25892e-07
2.03447e-05
-5.988e-08
1.16973e-07
2.02447e-05
-5.41998e-08
1.08912e-07
2.0151e-05
-4.89492e-08
1.01598e-07
2.00632e-05
-4.41096e-08
9.49378e-08
1.99805e-05
-3.96602e-08
8.88528e-08
1.99028e-05
-3.56188e-08
8.32726e-08
1.98294e-05
-3.19453e-08
7.8152e-08
1.97602e-05
-2.87924e-08
7.34117e-08
1.96948e-05
-2.59177e-08
6.90863e-08
1.96331e-05
-2.41355e-08
6.49486e-08
1.95745e-05
-2.19415e-08
6.1333e-08
1.95197e-05
-2.34605e-08
5.78574e-08
1.9471e-05
-2.05497e-08
5.05832e-08
1.94102e-05
-3.25157e-08
6.60061e-08
-2.16991e-08
-2.80081e-08
7.7075e-05
-2.69007e-07
8.96488e-05
4.76803e-05
-4.56066e-07
2.94855e-05
3.62044e-05
-5.26899e-07
1.15751e-05
3.16333e-05
-5.36106e-07
4.66786e-06
2.91524e-05
-5.15226e-07
2.57086e-06
2.75322e-05
-4.80367e-07
1.70232e-06
2.63516e-05
-4.40406e-07
1.25491e-06
2.54398e-05
-4.00232e-07
9.79004e-07
2.47096e-05
-3.62255e-07
7.9096e-07
2.4109e-05
-3.2749e-07
6.55609e-07
2.36049e-05
-2.96198e-07
5.54153e-07
2.31747e-05
-2.68254e-07
4.75738e-07
2.28025e-05
-2.43365e-07
4.13628e-07
2.2477e-05
-2.21179e-07
3.63432e-07
2.21896e-05
-2.01349e-07
3.22177e-07
2.19336e-05
-1.83553e-07