/*--------------------------------*- C++ -*----------------------------------*\
| =========                 |                                                 |
| \\      /  F ield         | OpenFOAM: The Open Source CFD Toolbox           |
|  \\    /   O peration     | Version:  5.0                                   |
|   \\  /    A nd           | Web:      www.OpenFOAM.org                      |
|    \\/     M anipulation  |                                                 |
\*---------------------------------------------------------------------------*/
FoamFile
{
    version     2.0;
    format      ascii;
    class       volScalarField;
    location    "450/porous";
    object      T;
}
// * * * * * * * * * * * * * * * * * * * * * * * * * * * * * * * * * * * * * //

dimensions      [0 0 0 1 0 0 0];

internalField   nonuniform List<scalar> 
36000
(
400
400
400
400
399.999
399.572
399.19
398.838
398.507
398.188
397.877
397.573
397.273
396.976
396.683
396.394
396.107
395.824
395.543
395.266
394.991
394.718
394.445
394.17
393.894
393.618
393.344
393.071
392.801
392.533
392.268
392.005
391.745
391.488
391.241
391.775
392.134
392.406
392.628
392.815
400
400
400
400
399.999
399.622
399.286
398.978
398.691
398.418
398.155
397.899
397.648
397.402
397.161
396.923
396.69
396.46
396.233
396.009
395.789
395.571
395.353
395.134
394.914
394.695
394.478
394.262
394.048
393.837
393.628
393.422
393.218
393.017
392.82
393.171
393.416
393.605
393.754
393.887
400
400
400
400
399.999
399.628
399.3
399.002
398.726
398.466
398.217
397.976
397.742
397.514
397.291
397.073
396.86
396.651
396.445
396.244
396.046
395.851
395.658
395.464
395.269
395.076
394.884
394.694
394.507
394.323
394.142
393.963
393.787
393.613
393.444
393.767
393.997
394.174
394.316
394.438
400
400
400
400
399.999
399.627
399.298
399.002
398.728
398.47
398.224
397.987
397.757
397.534
397.316
397.104
396.896
396.692
396.493
396.297
396.105
395.917
395.731
395.545
395.359
395.174
394.991
394.811
394.632
394.457
394.285
394.116
393.949
393.786
393.627
393.944
394.172
394.348
394.49
394.611
400
400
400
400
399.999
399.627
399.297
399.001
398.727
398.47
398.226
397.99
397.763
397.541
397.324
397.113
396.907
396.704
396.504
396.309
396.118
395.932
395.747
395.564
395.381
395.199
395.019
394.841
394.666
394.494
394.325
394.159
393.995
393.835
393.679
393.995
394.223
394.398
394.541
394.662
400
400
400
400
399.999
399.625
399.296
398.998
398.725
398.468
398.224
397.989
397.763
397.542
397.326
397.114
396.907
396.703
396.503
396.306
396.114
395.927
395.742
395.559
395.378
395.197
395.019
394.842
394.668
394.496
394.328
394.163
394.001
393.841
393.687
394.002
394.23
394.405
394.548
394.669
400
400
400
400
399.999
399.625
399.295
398.998
398.724
398.468
398.225
397.991
397.766
397.546
397.33
397.119
396.911
396.705
396.503
396.305
396.111
395.922
395.737
395.554
395.374
395.194
395.017
394.841
394.667
394.496
394.328
394.163
394.002
393.843
393.688
394.003
394.231
394.406
394.549
394.67
400
400
400
400
399.999
399.624
399.294
398.997
398.724
398.468
398.225
397.992
397.768
397.549
397.333
397.121
396.911
396.704
396.5
396.3
396.105
395.914
395.728
395.545
395.364
395.186
395.01
394.835
394.662
394.491
394.323
394.158
393.996
393.837
393.683
393.998
394.226
394.401
394.544
394.664
400
400
400
400
399.999
399.625
399.294
398.998
398.725
398.469
398.227
397.995
397.771
397.553
397.338
397.125
396.914
396.705
396.5
396.298
396.102
395.909
395.721
395.537
395.357
395.18
395.005
394.831
394.658
394.488
394.32
394.155
393.994
393.835
393.681
393.996
394.223
394.398
394.541
394.662
400
400
400
400
399.999
399.625
399.295
398.998
398.726
398.471
398.228
397.997
397.774
397.556
397.34
397.126
396.914
396.703
396.496
396.294
396.096
395.902
395.712
395.528
395.347
395.171
394.997
394.824
394.652
394.482
394.315
394.15
393.989
393.83
393.676
393.991
394.218
394.394
394.536
394.657
400
400
400
400
399.999
399.626
399.297
399.001
398.729
398.474
398.232
398
397.777
397.559
397.342
397.127
396.914
396.702
396.494
396.291
396.092
395.896
395.706
395.521
395.34
395.164
394.991
394.819
394.648
394.479
394.312
394.148
393.987
393.828
393.674
393.989
394.216
394.392
394.534
394.655
400
400
400
400
399.999
399.627
399.298
399.003
398.731
398.476
398.234
398.002
397.779
397.56
397.343
397.127
396.912
396.699
396.49
396.287
396.088
395.892
395.7
395.514
395.334
395.157
394.985
394.815
394.645
394.476
394.309
394.146
393.985
393.826
393.672
393.987
394.214
394.389
394.532
394.653
400
400
400
400
399.999
399.629
399.302
399.007
398.735
398.48
398.237
398.005
397.781
397.561
397.343
397.126
396.911
396.697
396.489
396.287
396.088
395.892
395.699
395.513
395.332
395.156
394.984
394.814
394.645
394.477
394.311
394.148
393.987
393.828
393.673
393.988
394.215
394.39
394.533
394.653
400
400
400
400
399.999
399.63
399.304
399.01
398.738
398.482
398.238
398.005
397.78
397.56
397.341
397.123
396.908
396.695
396.488
396.285
396.087
395.891
395.699
395.512
395.331
395.155
394.984
394.815
394.647
394.479
394.313
394.15
393.989
393.83
393.674
393.988
394.215
394.391
394.533
394.654
400
400
400
400
399.999
399.631
399.305
399.011
398.739
398.483
398.239
398.005
397.779
397.558
397.338
397.121
396.905
396.693
396.486
396.284
396.086
395.89
395.698
395.511
395.33
395.155
394.984
394.817
394.649
394.482
394.317
394.154
393.993
393.833
393.676
393.991
394.217
394.393
394.535
394.656
400
400
400
400
399.999
399.633
399.308
399.014
398.741
398.484
398.239
398.004
397.777
397.555
397.336
397.118
396.903
396.691
396.484
396.282
396.084
395.888
395.697
395.51
395.329
395.155
394.985
394.818
394.652
394.485
394.32
394.157
393.996
393.834
393.674
393.99
394.217
394.392
394.535
394.655
400
400
400
400
399.999
399.633
399.309
399.014
398.741
398.483
398.237
398.002
397.774
397.552
397.333
397.115
396.9
396.688
396.481
396.279
396.081
395.885
395.694
395.508
395.328
395.154
394.985
394.819
394.653
394.487
394.322
394.159
393.996
393.834
393.674
393.989
394.216
394.391
394.534
394.655
400
400
400
400
399.999
399.633
399.309
399.015
398.741
398.483
398.236
398
397.772
397.55
397.33
397.113
396.899
396.686
396.479
396.277
396.079
395.883
395.691
395.506
395.327
395.155
394.987
394.821
394.656
394.49
394.325
394.161
393.997
393.834
393.672
393.988
394.216
394.391
394.534
394.654
400
400
400
400
399.999
399.634
399.309
399.015
398.741
398.482
398.234
397.998
397.769
397.547
397.328
397.112
396.898
396.686
396.479
396.277
396.078
395.882
395.691
395.507
395.329
395.157
394.989
394.824
394.658
394.493
394.327
394.163
393.998
393.832
393.669
393.985
394.213
394.389
394.532
394.653
400
400
400
400
399.999
399.634
399.31
399.015
398.74
398.481
398.233
397.996
397.768
397.545
397.327
397.112
396.9
396.689
396.482
396.28
396.082
395.887
395.697
395.513
395.336
395.164
394.996
394.83
394.664
394.498
394.332
394.166
394
393.833
393.67
393.987
394.215
394.391
394.534
394.655
400
400
400
400
399.999
399.634
399.31
399.015
398.74
398.48
398.232
397.995
397.766
397.544
397.326
397.112
396.901
396.693
396.487
396.286
396.088
395.894
395.704
395.521
395.344
395.171
395.003
394.836
394.669
394.502
394.336
394.169
394.002
393.834
393.669
393.987
394.215
394.392
394.535
394.656
400
400
400
400
399.999
399.634
399.31
399.015
398.74
398.48
398.232
397.994
397.765
397.543
397.326
397.114
396.905
396.698
396.494
396.294
396.097
395.904
395.715
395.532
395.355
395.181
395.012
394.844
394.676
394.508
394.341
394.174
394.006
393.837
393.672
393.99
394.219
394.396
394.539
394.66
400
400
400
400
399.999
399.634
399.31
399.015
398.74
398.48
398.232
397.993
397.764
397.541
397.325
397.113
396.906
396.702
396.5
396.301
396.105
395.912
395.725
395.542
395.363
395.189
395.017
394.848
394.679
394.511
394.343
394.175
394.007
393.839
393.673
393.991
394.221
394.397
394.541
394.662
400
400
400
400
399.999
399.635
399.311
399.016
398.741
398.481
398.233
397.994
397.764
397.542
397.325
397.115
396.909
396.707
396.507
396.31
396.115
395.923
395.736
395.553
395.374
395.198
395.025
394.854
394.684
394.515
394.347
394.179
394.011
393.842
393.677
393.996
394.225
394.402
394.545
394.667
400
400
400
400
399.999
399.635
399.311
399.016
398.742
398.482
398.233
397.994
397.763
397.54
397.324
397.113
396.908
396.708
396.51
396.314
396.121
395.93
395.743
395.56
395.379
395.202
395.027
394.854
394.683
394.514
394.345
394.177
394.009
393.84
393.675
393.994
394.224
394.401
394.544
394.666
400
400
400
400
399.999
399.636
399.313
399.018
398.743
398.484
398.236
397.996
397.765
397.542
397.325
397.114
396.91
396.711
396.514
396.32
396.127
395.936
395.749
395.565
395.383
395.204
395.027
394.852
394.68
394.509
394.34
394.171
394.002
393.833
393.668
393.987
394.217
394.394
394.537
394.658
400
400
400
400
399.999
399.636
399.313
399.018
398.743
398.483
398.234
397.994
397.762
397.537
397.318
397.107
396.901
396.701
396.504
396.309
396.115
395.923
395.734
395.547
395.362
395.179
394.999
394.821
394.645
394.471
394.299
394.127
393.956
393.784
393.616
393.936
394.166
394.343
394.486
394.608
400
400
400
400
399.999
399.637
399.313
399.017
398.74
398.478
398.227
397.983
397.747
397.518
397.294
397.077
396.867
396.661
396.459
396.257
396.057
395.858
395.661
395.466
395.273
395.081
394.891
394.704
394.519
394.336
394.154
393.973
393.793
393.612
393.434
393.76
393.992
394.17
394.312
394.435
400
400
400
400
399.999
399.629
399.297
398.992
398.704
398.429
398.164
397.906
397.654
397.407
397.165
396.929
396.698
396.471
396.247
396.024
395.801
395.578
395.357
395.137
394.918
394.701
394.485
394.271
394.059
393.849
393.641
393.433
393.225
393.017
392.812
393.166
393.413
393.602
393.753
393.885
400
400
400
400
399.999
399.58
399.201
398.851
398.519
398.198
397.886
397.579
397.278
396.98
396.688
396.399
396.116
395.837
395.559
395.281
395.003
394.726
394.449
394.173
393.898
393.625
393.352
393.082
392.814
392.548
392.283
392.019
391.755
391.49
391.232
391.77
392.131
392.404
392.626
392.814
400
400
400
400
399.999
399.773
399.518
399.247
398.969
398.687
398.403
398.119
397.835
397.551
397.268
396.987
396.707
396.429
396.152
395.877
395.605
395.334
395.063
394.791
394.518
394.245
393.973
393.701
393.431
393.163
392.898
392.634
392.373
392.114
391.861
392.109
392.347
392.559
392.747
392.911
400
400
400
400
400
399.805
399.589
399.362
399.13
398.896
398.662
398.429
398.196
397.965
397.736
397.509
397.285
397.062
396.842
396.624
396.408
396.194
395.981
395.767
395.553
395.339
395.126
394.915
394.704
394.496
394.289
394.084
393.882
393.681
393.483
393.597
393.718
393.836
393.943
394.044
400
400
400
400
400
399.809
399.599
399.381
399.16
398.938
398.717
398.498
398.282
398.069
397.858
397.65
397.445
397.244
397.045
396.849
396.655
396.465
396.275
396.086
395.898
395.709
395.522
395.337
395.153
394.972
394.792
394.615
394.44
394.267
394.097
394.198
394.307
394.413
394.511
394.603
400
400
400
400
400
399.808
399.598
399.381
399.16
398.94
398.723
398.507
398.295
398.086
397.88
397.678
397.478
397.282
397.089
396.899
396.712
396.528
396.345
396.164
395.983
395.804
395.625
395.448
395.274
395.101
394.931
394.763
394.597
394.434
394.274
394.374
394.481
394.586
394.684
394.775
400
400
400
400
400
399.808
399.598
399.38
399.16
398.941
398.724
398.51
398.299
398.091
397.887
397.686
397.488
397.293
397.1
396.911
396.725
396.542
396.362
396.183
396.004
395.828
395.652
395.478
395.306
395.136
394.969
394.804
394.642
394.482
394.325
394.425
394.532
394.637
394.735
394.826
400
400
400
400
400
399.807
399.596
399.378
399.157
398.938
398.721
398.507
398.297
398.09
397.886
397.685
397.487
397.292
397.099
396.909
396.722
396.538
396.357
396.178
396.001
395.825
395.651
395.478
395.307
395.138
394.971
394.807
394.646
394.487
394.331
394.431
394.539
394.644
394.742
394.833
400
400
400
400
400
399.807
399.596
399.377
399.157
398.938
398.721
398.508
398.299
398.093
397.889
397.689
397.49
397.294
397.1
396.908
396.72
396.536
396.354
396.175
395.998
395.822
395.648
395.476
395.306
395.137
394.971
394.807
394.646
394.488
394.332
394.432
394.54
394.644
394.743
394.834
400
400
400
400
400
399.807
399.595
399.376
399.156
398.937
398.72
398.508
398.299
398.093
397.89
397.689
397.49
397.293
397.098
396.905
396.716
396.529
396.347
396.167
395.989
395.814
395.641
395.469
395.299
395.131
394.965
394.801
394.64
394.482
394.327
394.427
394.534
394.639
394.737
394.828
400
400
400
400
400
399.807
399.595
399.377
399.156
398.937
398.722
398.51
398.302
398.097
397.894
397.692
397.493
397.294
397.098
396.904
396.714
396.526
396.342
396.161
395.984
395.809
395.636
395.465
395.295
395.127
394.961
394.798
394.637
394.479
394.324
394.424
394.531
394.636
394.735
394.826
400
400
400
400
400
399.806
399.595
399.377
399.157
398.938
398.722
398.51
398.303
398.098
397.895
397.693
397.492
397.293
397.096
396.901
396.709
396.52
396.335
396.153
395.975
395.8
395.628
395.457
395.288
395.121
394.955
394.792
394.632
394.474
394.319
394.419
394.526
394.631
394.73
394.821
400
400
400
400
400
399.807
399.597
399.379
399.159
398.94
398.724
398.513
398.305
398.1
397.897
397.695
397.493
397.293
397.094
396.899
396.707
396.517
396.331
396.148
395.97
395.795
395.623
395.453
395.284
395.117
394.952
394.79
394.629
394.471
394.316
394.416
394.524
394.629
394.728
394.819
400
400
400
400
400
399.808
399.597
399.38
399.16
398.942
398.726
398.514
398.306
398.101
397.897
397.694
397.492
397.291
397.092
396.896
396.704
396.513
396.326
396.143
395.964
395.789
395.617
395.448
395.28
395.113
394.949
394.787
394.627
394.469
394.314
394.414
394.522
394.627
394.725
394.816
400
400
400
400
400
399.809
399.599
399.382
399.163
398.944
398.728
398.516
398.308
398.103
397.898
397.694
397.492
397.29
397.091
396.896
396.703
396.513
396.325
396.142
395.963
395.788
395.616
395.447
395.28
395.114
394.95
394.788
394.628
394.47
394.315
394.415
394.522
394.627
394.726
394.817
400
400
400
400
400
399.809
399.601
399.384
399.165
398.946
398.73
398.517
398.308
398.102
397.897
397.693
397.49
397.288
397.09
396.894
396.702
396.512
396.325
396.141
395.962
395.787
395.615
395.447
395.28
395.115
394.951
394.789
394.63
394.471
394.315
394.416
394.523
394.628
394.726
394.818
400
400
400
400
400
399.81
399.601
399.385
399.166
398.947
398.73
398.517
398.308
398.101
397.896
397.691
397.488
397.286
397.088
396.893
396.701
396.511
396.324
396.14
395.961
395.786
395.616
395.448
395.282
395.117
394.953
394.792
394.632
394.474
394.318
394.418
394.525
394.63
394.728
394.819
400
400
400
400
400
399.811
399.603
399.387
399.168
398.948
398.731
398.517
398.307
398.1
397.894
397.689
397.486
397.284
397.086
396.891
396.699
396.509
396.322
396.139
395.96
395.786
395.616
395.449
395.283
395.119
394.956
394.795
394.635
394.475
394.317
394.417
394.525
394.629
394.728
394.819
400
400
400
400
400
399.811
399.603
399.387
399.168
398.948
398.73
398.516
398.305
398.098
397.891
397.687
397.483
397.282
397.083
396.888
396.696
396.506
396.319
396.136
395.958
395.784
395.615
395.448
395.284
395.12
394.957
394.796
394.635
394.475
394.317
394.417
394.524
394.629
394.727
394.818
400
400
400
400
400
399.811
399.604
399.387
399.168
398.948
398.73
398.515
398.304
398.096
397.89
397.685
397.482
397.281
397.082
396.887
396.695
396.505
396.318
396.135
395.957
395.784
395.616
395.45
395.285
395.122
394.959
394.798
394.637
394.476
394.317
394.417
394.524
394.629
394.727
394.818
400
400
400
400
400
399.811
399.604
399.387
399.167
398.947
398.729
398.514
398.302
398.094
397.888
397.684
397.481
397.28
397.082
396.887
396.694
396.504
396.317
396.135
395.958
395.786
395.617
395.452
395.287
395.124
394.961
394.799
394.638
394.476
394.315
394.415
394.522
394.627
394.726
394.817
400
400
400
400
400
399.811
399.604
399.388
399.168
398.947
398.728
398.513
398.301
398.093
397.888
397.684
397.482
397.282
397.084
396.89
396.697
396.508
396.322
396.141
395.964
395.792
395.623
395.458
395.293
395.129
394.966
394.804
394.641
394.479
394.318
394.417
394.525
394.629
394.728
394.819
400
400
400
400
400
399.811
399.604
399.388
399.167
398.947
398.728
398.512
398.3
398.092
397.887
397.684
397.483
397.284
397.088
396.893
396.702
396.513
396.328
396.147
395.971
395.798
395.63
395.464
395.299
395.134
394.971
394.807
394.644
394.481
394.318
394.418
394.526
394.631
394.729
394.82
400
400
400
400
400
399.812
399.604
399.388
399.168
398.947
398.729
398.513
398.3
398.092
397.887
397.685
397.486
397.288
397.093
396.9
396.709
396.522
396.337
396.157
395.981
395.808
395.639
395.472
395.306
395.141
394.977
394.813
394.65
394.485
394.323
394.422
394.53
394.635
394.733
394.825
400
400
400
400
400
399.812
399.605
399.388
399.168
398.948
398.728
398.512
398.3
398.091
397.886
397.685
397.486
397.29
397.096
396.905
396.715
396.528
396.345
396.165
395.988
395.815
395.645
395.477
395.31
395.145
394.98
394.816
394.652
394.487
394.325
394.424
394.532
394.637
394.735
394.827
400
400
400
400
400
399.812
399.605
399.389
399.169
398.949
398.73
398.514
398.301
398.093
397.888
397.687
397.489
397.295
397.102
396.912
396.724
396.538
396.355
396.175
395.999
395.825
395.653
395.484
395.317
395.151
394.986
394.821
394.657
394.492
394.33
394.429
394.537
394.642
394.74
394.832
400
400
400
400
400
399.812
399.606
399.39
399.17
398.949
398.73
398.514
398.301
398.092
397.887
397.686
397.489
397.295
397.104
396.915
396.728
396.542
396.36
396.18
396.003
395.829
395.656
395.486
395.318
395.151
394.985
394.82
394.655
394.491
394.328
394.428
394.535
394.641
394.739
394.83
400
400
400
400
400
399.813
399.607
399.391
399.172
398.952
398.733
398.517
398.304
398.095
397.889
397.688
397.491
397.298
397.108
396.919
396.733
396.548
396.366
396.186
396.008
395.832
395.658
395.486
395.316
395.148
394.982
394.816
394.65
394.485
394.322
394.421
394.529
394.634
394.732
394.824
400
400
400
400
400
399.813
399.607
399.391
399.171
398.951
398.732
398.515
398.301
398.09
397.884
397.681
397.483
397.289
397.098
396.908
396.721
396.534
396.35
396.168
395.988
395.809
395.632
395.456
395.283
395.112
394.942
394.773
394.605
394.437
394.271
394.37
394.478
394.583
394.681
394.773
400
400
400
400
400
399.813
399.607
399.391
399.17
398.948
398.726
398.506
398.288
398.074
397.862
397.655
397.451
397.252
397.055
396.859
396.665
396.472
396.281
396.091
395.902
395.715
395.529
395.345
395.162
394.982
394.803
394.625
394.447
394.27
394.094
394.195
394.304
394.41
394.508
394.6
400
400
400
400
400
399.809
399.596
399.371
399.14
398.905
398.67
398.436
398.202
397.971
397.741
397.515
397.291
397.071
396.853
396.635
396.419
396.202
395.987
395.772
395.558
395.345
395.133
394.923
394.714
394.506
394.3
394.095
393.89
393.685
393.482
393.595
393.717
393.835
393.942
394.043
400
400
400
400
399.999
399.777
399.525
399.256
398.978
398.696
398.411
398.126
397.84
397.556
397.273
396.992
396.714
396.439
396.165
395.891
395.617
395.343
395.069
394.796
394.523
394.251
393.98
393.711
393.443
393.176
392.911
392.647
392.383
392.119
391.858
392.107
392.345
392.558
392.746
392.91
400
400
400
400
400
399.858
399.695
399.515
399.32
399.111
398.892
398.664
398.429
398.188
397.943
397.694
397.443
397.19
396.936
396.68
396.425
396.169
395.912
395.653
395.393
395.132
394.87
394.608
394.347
394.086
393.826
393.568
393.311
393.055
392.803
392.875
392.968
393.072
393.178
393.276
400
400
400
400
400
399.877
399.741
399.593
399.434
399.267
399.093
398.913
398.729
398.541
398.35
398.157
397.962
397.767
397.572
397.376
397.18
396.984
396.788
396.591
396.394
396.195
395.997
395.799
395.601
395.404
395.208
395.013
394.819
394.626
394.435
394.434
394.447
394.472
394.503
394.537
400
400
400
400
400
399.88
399.748
399.606
399.455
399.297
399.135
398.968
398.798
398.625
398.451
398.276
398.101
397.926
397.751
397.576
397.403
397.23
397.058
396.885
396.712
396.539
396.366
396.194
396.023
395.853
395.684
395.516
395.35
395.185
395.022
395.023
395.034
395.055
395.081
395.111
400
400
400
400
400
399.88
399.747
399.605
399.456
399.3
399.139
398.975
398.808
398.639
398.469
398.299
398.129
397.959
397.79
397.621
397.454
397.287
397.122
396.956
396.791
396.626
396.462
396.298
396.136
395.974
395.814
395.656
395.499
395.344
395.19
395.193
395.207
395.229
395.255
395.287
400
400
400
400
400
399.879
399.747
399.605
399.456
399.3
399.14
398.977
398.811
398.644
398.475
398.306
398.138
397.969
397.801
397.633
397.467
397.302
397.138
396.975
396.812
396.649
396.488
396.327
396.167
396.008
395.851
395.696
395.542
395.39
395.24
395.244
395.258
395.281
395.308
395.34
400
400
400
400
400
399.879
399.746
399.604
399.454
399.298
399.138
398.974
398.809
398.642
398.474
398.305
398.136
397.967
397.799
397.631
397.464
397.299
397.135
396.971
396.809
396.647
396.486
396.326
396.167
396.009
395.853
395.698
395.545
395.394
395.245
395.25
395.264
395.287
395.315
395.347
400
400
400
400
400
399.879
399.746
399.603
399.453
399.298
399.138
398.975
398.81
398.643
398.476
398.307
398.138
397.969
397.8
397.631
397.464
397.298
397.133
396.969
396.807
396.645
396.485
396.325
396.166
396.009
395.853
395.698
395.546
395.395
395.246
395.25
395.265
395.288
395.316
395.348
400
400
400
400
400
399.879
399.745
399.603
399.453
399.297
399.137
398.974
398.809
398.643
398.475
398.307
398.137
397.967
397.797
397.628
397.459
397.292
397.127
396.963
396.8
396.638
396.478
396.318
396.159
396.002
395.846
395.692
395.539
395.388
395.239
395.244
395.259
395.282
395.31
395.342
400
400
400
400
400
399.879
399.746
399.603
399.453
399.297
399.137
398.975
398.811
398.645
398.477
398.309
398.139
397.968
397.798
397.628
397.459
397.291
397.124
396.959
396.796
396.634
396.474
396.314
396.156
395.999
395.843
395.689
395.536
395.385
395.237
395.242
395.257
395.279
395.307
395.34
400
400
400
400
400
399.879
399.746
399.603
399.453
399.297
399.138
398.975
398.811
398.645
398.478
398.309
398.138
397.967
397.796
397.625
397.455
397.286
397.119
396.953
396.789
396.627
396.467
396.308
396.15
395.992
395.837
395.683
395.53
395.38
395.231
395.236
395.251
395.274
395.302
395.335
400
400
400
400
400
399.879
399.746
399.604
399.454
399.299
399.139
398.977
398.813
398.647
398.48
398.31
398.139
397.968
397.796
397.624
397.454
397.284
397.116
396.95
396.786
396.623
396.463
396.304
396.146
395.989
395.834
395.68
395.528
395.377
395.228
395.234
395.249
395.272
395.3
395.333
400
400
400
400
400
399.879
399.747
399.605
399.455
399.3
399.14
398.978
398.814
398.648
398.48
398.31
398.138
397.966
397.794
397.622
397.451
397.281
397.112
396.946
396.781
396.619
396.458
396.3
396.142
395.985
395.83
395.677
395.525
395.374
395.225
395.23
395.246
395.269
395.297
395.33
400
400
400
400
400
399.88
399.748
399.606
399.457
399.302
399.142
398.98
398.815
398.649
398.48
398.31
398.139
397.966
397.793
397.622
397.451
397.281
397.112
396.945
396.78
396.618
396.458
396.299
396.142
395.985
395.83
395.677
395.525
395.375
395.226
395.231
395.246
395.269
395.297
395.33
400
400
400
400
400
399.88
399.749
399.607
399.458
399.303
399.143
398.98
398.816
398.649
398.48
398.309
398.137
397.965
397.792
397.621
397.45
397.28
397.111
396.944
396.779
396.617
396.457
396.299
396.142
395.986
395.831
395.678
395.526
395.375
395.226
395.231
395.247
395.27
395.298
395.331
400
400
400
400
400
399.881
399.749
399.608
399.459
399.303
399.143
398.98
398.815
398.648
398.479
398.308
398.136
397.963
397.791
397.62
397.449
397.279
397.11
396.943
396.779
396.616
396.457
396.299
396.142
395.987
395.832
395.679
395.528
395.377
395.228
395.233
395.248
395.271
395.299
395.332
400
400
400
400
400
399.881
399.751
399.609
399.46
399.305
399.144
398.981
398.815
398.648
398.478
398.307
398.135
397.962
397.79
397.618
397.448
397.278
397.109
396.942
396.777
396.616
396.456
396.299
396.143
395.988
395.834
395.681
395.529
395.378
395.228
395.233
395.248
395.271
395.299
395.332
400
400
400
400
400
399.881
399.751
399.61
399.46
399.304
399.144
398.98
398.814
398.646
398.477
398.305
398.133
397.96
397.788
397.616
397.446
397.276
397.107
396.94
396.776
396.614
396.455
396.298
396.143
395.988
395.834
395.681
395.53
395.378
395.228
395.233
395.248
395.271
395.299
395.331
400
400
400
400
400
399.882
399.751
399.61
399.46
399.304
399.143
398.979
398.813
398.645
398.476
398.305
398.132
397.96
397.787
397.615
397.445
397.275
397.106
396.939
396.775
396.614
396.455
396.299
396.144
395.989
395.835
395.683
395.531
395.379
395.228
395.233
395.248
395.271
395.299
395.332
400
400
400
400
400
399.882
399.751
399.61
399.46
399.304
399.143
398.979
398.812
398.644
398.475
398.304
398.132
397.959
397.787
397.615
397.444
397.274
397.105
396.939
396.775
396.615
396.456
396.3
396.145
395.991
395.837
395.684
395.532
395.379
395.227
395.232
395.247
395.27
395.298
395.331
400
400
400
400
400
399.882
399.751
399.61
399.46
399.304
399.143
398.978
398.812
398.644
398.475
398.304
398.133
397.961
397.789
397.617
397.447
397.277
397.109
396.943
396.78
396.62
396.462
396.305
396.15
395.996
395.842
395.689
395.536
395.383
395.231
395.235
395.25
395.273
395.301
395.333
400
400
400
400
400
399.882
399.751
399.61
399.46
399.304
399.142
398.978
398.811
398.643
398.474
398.304
398.133
397.962
397.79
397.62
397.45
397.281
397.113
396.948
396.785
396.625
396.467
396.31
396.155
396
395.846
395.692
395.539
395.386
395.233
395.237
395.252
395.275
395.302
395.335
400
400
400
400
400
399.882
399.751
399.61
399.461
399.304
399.143
398.978
398.812
398.644
398.475
398.305
398.135
397.965
397.795
397.625
397.456
397.287
397.121
396.956
396.793
396.633
396.475
396.318
396.162
396.007
395.853
395.699
395.545
395.391
395.238
395.243
395.257
395.28
395.307
395.34
400
400
400
400
400
399.882
399.751
399.61
399.461
399.304
399.143
398.978
398.811
398.643
398.474
398.305
398.136
397.966
397.797
397.628
397.459
397.292
397.126
396.962
396.799
396.639
396.48
396.323
396.167
396.011
395.856
395.702
395.548
395.394
395.241
395.245
395.26
395.282
395.31
395.342
400
400
400
400
400
399.882
399.752
399.611
399.462
399.306
399.145
398.98
398.813
398.645
398.476
398.307
398.139
397.97
397.802
397.634
397.466
397.3
397.134
396.97
396.808
396.648
396.488
396.331
396.174
396.018
395.863
395.709
395.554
395.4
395.247
395.251
395.265
395.288
395.315
395.348
400
400
400
400
400
399.882
399.752
399.611
399.462
399.306
399.145
398.98
398.813
398.645
398.476
398.307
398.138
397.971
397.803
397.636
397.469
397.303
397.138
396.974
396.812
396.651
396.491
396.332
396.175
396.019
395.863
395.708
395.554
395.399
395.246
395.25
395.264
395.287
395.314
395.347
400
400
400
400
400
399.882
399.753
399.612
399.463
399.308
399.147
398.983
398.816
398.647
398.478
398.309
398.141
397.974
397.807
397.64
397.473
397.307
397.142
396.979
396.816
396.654
396.493
396.333
396.175
396.018
395.861
395.705
395.55
395.395
395.24
395.244
395.258
395.28
395.308
395.339
400
400
400
400
400
399.882
399.752
399.612
399.463
399.307
399.146
398.981
398.813
398.644
398.473
398.303
398.134
397.965
397.797
397.629
397.461
397.294
397.127
396.961
396.796
396.631
396.468
396.305
396.144
395.983
395.824
395.665
395.506
395.348
395.191
395.194
395.207
395.228
395.255
395.286
400
400
400
400
400
399.883
399.753
399.612
399.462
399.304
399.141
398.974
398.803
398.63
398.456
398.281
398.106
397.932
397.759
397.585
397.411
397.237
397.063
396.89
396.717
396.544
396.372
396.201
396.031
395.861
395.693
395.525
395.357
395.19
395.023
395.023
395.034
395.055
395.08
395.111
400
400
400
400
400
399.88
399.745
399.598
399.44
399.274
399.099
398.919
398.734
398.545
398.354
398.161
397.968
397.774
397.58
397.385
397.188
396.992
396.794
396.597
396.399
396.201
396.003
395.806
395.609
395.413
395.217
395.022
394.826
394.631
394.437
394.435
394.448
394.473
394.503
394.538
400
400
400
400
400
399.86
399.7
399.521
399.326
399.118
398.898
398.67
398.434
398.193
397.947
397.699
397.449
397.198
396.945
396.691
396.435
396.177
395.918
395.659
395.398
395.138
394.877
394.616
394.356
394.097
393.838
393.579
393.32
393.062
392.804
392.876
392.969
393.072
393.178
393.276
400
400
400
400
400
399.891
399.771
399.641
399.499
399.348
399.186
399.015
398.834
398.646
398.451
398.249
398.042
397.829
397.613
397.393
397.169
396.943
396.714
396.482
396.246
396.008
395.768
395.527
395.284
395.041
394.797
394.553
394.309
394.066
393.824
393.819
393.827
393.848
393.878
393.903
400
400
400
400
400
399.905
399.804
399.696
399.581
399.46
399.334
399.201
399.063
398.92
398.773
398.621
398.467
398.31
398.15
397.988
397.824
397.658
397.491
397.321
397.15
396.977
396.802
396.627
396.451
396.275
396.098
395.922
395.745
395.569
395.393
395.355
395.323
395.299
395.279
395.263
400
400
400
400
400
399.907
399.809
399.705
399.596
399.482
399.363
399.241
399.114
398.984
398.851
398.715
398.577
398.437
398.296
398.154
398.01
397.866
397.721
397.574
397.426
397.277
397.128
396.978
396.828
396.678
396.528
396.378
396.229
396.08
395.933
395.903
395.878
395.858
395.842
395.829
400
400
400
400
400
399.907
399.808
399.705
399.596
399.484
399.367
399.246
399.122
398.995
398.865
398.733
398.6
398.465
398.328
398.191
398.053
397.915
397.776
397.636
397.495
397.354
397.212
397.07
396.929
396.787
396.646
396.505
396.365
396.226
396.087
396.062
396.041
396.024
396.011
396.002
400
400
400
400
400
399.907
399.808
399.705
399.596
399.484
399.368
399.248
399.124
398.998
398.87
398.739
398.606
398.473
398.337
398.201
398.065
397.928
397.791
397.653
397.514
397.375
397.236
397.096
396.957
396.818
396.68
396.542
396.405
396.269
396.133
396.11
396.09
396.075
396.063
396.056
400
400
400
400
400
399.906
399.807
399.704
399.595
399.483
399.366
399.246
399.123
398.997
398.868
398.738
398.605
398.471
398.336
398.199
398.062
397.925
397.788
397.65
397.512
397.374
397.235
397.096
396.958
396.819
396.682
396.545
396.408
396.273
396.138
396.115
396.096
396.081
396.07
396.064
400
400
400
400
400
399.906
399.807
399.703
399.595
399.482
399.366
399.246
399.124
398.998
398.87
398.739
398.606
398.472
398.336
398.199
398.062
397.925
397.787
397.649
397.511
397.372
397.234
397.095
396.957
396.819
396.681
396.545
396.409
396.273
396.139
396.116
396.097
396.082
396.071
396.066
400
400
400
400
400
399.906
399.807
399.703
399.595
399.482
399.365
399.246
399.123
398.997
398.869
398.739
398.606
398.471
398.334
398.197
398.059
397.92
397.782
397.643
397.505
397.367
397.228
397.09
396.951
396.813
396.675
396.539
396.402
396.267