/*--------------------------------*- C++ -*----------------------------------*\
| =========                 |                                                 |
| \\      /  F ield         | OpenFOAM: The Open Source CFD Toolbox           |
|  \\    /   O peration     | Version:  5.0                                   |
|   \\  /    A nd           | Web:      www.OpenFOAM.org                      |
|    \\/     M anipulation  |                                                 |
\*---------------------------------------------------------------------------*/
FoamFile
{
    version     2.0;
    format      ascii;
    class       volVectorField;
    location    "450/porous";
    object      U;
}
// * * * * * * * * * * * * * * * * * * * * * * * * * * * * * * * * * * * * * //

dimensions      [0 1 -1 0 0 0 0];

internalField   nonuniform List<vector> 
36000
(
(0.00555056 7.02127e-05 0.000289042)
(0.00340903 4.42548e-05 6.71224e-05)
(0.00220329 3.69639e-05 1.37094e-05)
(0.00180686 3.07685e-05 1.60336e-06)
(0.00158038 2.55944e-05 1.93768e-07)
(0.00143087 2.16609e-05 -4.36089e-08)
(0.00131992 1.86587e-05 -9.92054e-08)
(0.00123221 1.63201e-05 -1.35693e-07)
(0.00116052 1.44475e-05 -1.60064e-07)
(0.00110042 1.29121e-05 -1.72949e-07)
(0.00104907 1.16278e-05 -1.7788e-07)
(0.00100455 1.05356e-05 -1.77421e-07)
(0.000965469 9.59367e-06 -1.73398e-07)
(0.000930829 8.77161e-06 -1.67057e-07)
(0.000899864 8.04684e-06 -1.59234e-07)
(0.000871988 7.40224e-06 -1.5051e-07)
(0.000846739 6.82465e-06 -1.41277e-07)
(0.000823745 6.30377e-06 -1.31817e-07)
(0.000802709 5.83144e-06 -1.22327e-07)
(0.000783384 5.40111e-06 -1.12951e-07)
(0.000765565 5.00746e-06 -1.03783e-07)
(0.000749081 4.64611e-06 -9.48902e-08)
(0.000733788 4.31339e-06 -8.63228e-08)
(0.000719561 4.00626e-06 -7.81107e-08)
(0.000706293 3.72211e-06 -7.02726e-08)
(0.000693893 3.45869e-06 -6.28095e-08)
(0.00068228 3.21412e-06 -5.57341e-08)
(0.000671383 2.98665e-06 -4.90355e-08)
(0.00066114 2.77502e-06 -4.27311e-08)
(0.000651494 2.57747e-06 -3.67414e-08)
(0.000642404 2.39419e-06 -3.12565e-08)
(0.000633803 2.22073e-06 -2.57526e-08)
(0.000625708 2.06531e-06 -2.15581e-08)
(0.00061794 1.90311e-06 -1.51651e-08)
(0.000610836 1.7956e-06 -1.56327e-08)
(0.000603416 1.57995e-06 7.61144e-10)
(0.000598098 1.65806e-06 -2.7013e-08)
(0.000588666 1.04833e-06 6.14626e-08)
(0.000590143 1.86558e-06 -1.49845e-07)
(0.000568368 1.44069e-07 5.94475e-07)
(0.00562429 8.38019e-05 0.000295874)
(0.00352515 5.57859e-05 6.94443e-05)
(0.00238476 4.95062e-05 1.59396e-05)
(0.00202138 4.17585e-05 3.37245e-06)
(0.00182312 3.58425e-05 1.57099e-06)
(0.00169624 3.13323e-05 1.11423e-06)
(0.0016036 2.77807e-05 9.06687e-07)
(0.00153095 2.49103e-05 7.56705e-07)
(0.00147176 2.25175e-05 6.42936e-07)
(0.00142217 2.04752e-05 5.57476e-07)
(0.00137972 1.86995e-05 4.9209e-07)
(0.00134278 1.71334e-05 4.41028e-07)
(0.00131018 1.57368e-05 4.00298e-07)
(0.00128111 1.44804e-05 3.67145e-07)
(0.00125493 1.33422e-05 3.39655e-07)
(0.00123117 1.23054e-05 3.16475e-07)
(0.00120947 1.13566e-05 2.96625e-07)
(0.00118953 1.04854e-05 2.79392e-07)
(0.00117111 9.68301e-06 2.64242e-07)
(0.00115403 8.94231e-06 2.50772e-07)
(0.00113812 8.25732e-06 2.38674e-07)
(0.00112326 7.62292e-06 2.27705e-07)
(0.00110934 7.03471e-06 2.17681e-07)
(0.00109625 6.48884e-06 2.08451e-07)
(0.00108393 5.98195e-06 1.99895e-07)
(0.00107229 5.51103e-06 1.91921e-07)
(0.00106128 5.07347e-06 1.84446e-07)
(0.00105085 4.66678e-06 1.77413e-07)
(0.00104095 4.28915e-06 1.70758e-07)
(0.00103154 3.93791e-06 1.64462e-07)
(0.00102258 3.61347e-06 1.58418e-07)
(0.00101403 3.30875e-06 1.52774e-07)
(0.00100589 3.03701e-06 1.47043e-07)
(0.000998041 2.75754e-06 1.42403e-07)
(0.000990699 2.5723e-06 1.3574e-07)
(0.000983225 2.20091e-06 1.35363e-07)
(0.000977201 2.36755e-06 1.18603e-07)
(0.000968382 1.1511e-06 1.53745e-07)
(0.000967689 3.2926e-06 1.33738e-08)
(0.00094824 -2.29511e-06 6.54403e-07)
(0.00561665 4.31986e-05 0.000294818)
(0.00351435 3.87549e-05 6.83114e-05)
(0.00239037 3.89918e-05 1.53282e-05)
(0.00203483 3.50479e-05 2.96223e-06)
(0.00184471 3.11662e-05 1.26848e-06)
(0.00172533 2.78118e-05 8.8646e-07)
(0.00163969 2.49083e-05 7.21891e-07)
(0.00157364 2.24204e-05 5.97653e-07)
(0.00152072 2.02732e-05 4.99541e-07)
(0.00147707 1.84035e-05 4.23724e-07)
(0.00144027 1.67601e-05 3.64413e-07)
(0.00140869 1.53028e-05 3.17311e-07)
(0.00138119 1.40001e-05 2.79302e-07)
(0.00135694 1.28275e-05 2.48196e-07)
(0.00133534 1.17655e-05 2.22416e-07)
(0.00131593 1.07986e-05 2.00817e-07)
(0.00129834 9.91439e-06 1.82559e-07)
(0.00128229 9.10285e-06 1.66995e-07)
(0.00126757 8.35569e-06 1.53637e-07)
(0.00125399 7.66613e-06 1.42093e-07)
(0.00124139 7.02845e-06 1.32059e-07)
(0.00122967 6.43788e-06 1.23289e-07)
(0.00121871 5.89029e-06 1.1559e-07)
(0.00120844 5.38213e-06 1.08793e-07)
(0.00119878 4.91036e-06 1.02765e-07)
(0.00118967 4.47226e-06 9.73987e-08)
(0.00118106 4.06552e-06 9.25964e-08)
(0.0011729 3.68794e-06 8.8281e-08)
(0.00116515 3.33801e-06 8.43829e-08)
(0.00115778 3.01344e-06 8.08643e-08)
(0.00115076 2.71471e-06 7.76169e-08)
(0.00114405 2.43563e-06 7.4756e-08)
(0.00113766 2.18829e-06 7.18512e-08)
(0.00113148 1.93572e-06 6.98583e-08)
(0.00112568 1.77117e-06 6.63331e-08)
(0.0011198 1.43092e-06 6.7288e-08)
(0.00111492 1.6137e-06 5.8079e-08)
(0.00110822 3.52057e-07 7.57375e-08)
(0.00110677 2.88827e-06 1.50272e-08)
(0.001093 -4.63676e-06 3.56819e-07)
(0.00560903 3.72179e-05 0.000295464)
(0.00349577 4.16684e-05 6.89141e-05)
(0.00237452 4.09011e-05 1.5737e-05)
(0.00202133 3.65959e-05 3.25869e-06)
(0.00183431 3.22541e-05 1.48091e-06)
(0.00171797 2.84864e-05 1.04272e-06)
(0.00163519 2.52718e-05 8.38263e-07)
(0.00157184 2.25653e-05 6.87113e-07)
(0.00152146 2.02753e-05 5.71007e-07)
(0.00148021 1.83189e-05 4.83091e-07)
(0.0014457 1.66287e-05 4.15587e-07)
(0.0014163 1.51519e-05 3.62875e-07)
(0.0013909 1.38477e-05 3.2097e-07)
(0.00136869 1.26849e-05 2.87082e-07)
(0.00134905 1.16393e-05 2.59238e-07)
(0.00133154 1.0692e-05 2.3604e-07)
(0.00131579 9.82858e-06 2.16454e-07)
(0.00130154 9.03729e-06 1.99731e-07)
(0.00128855 8.30896e-06 1.85291e-07)
(0.00127665 7.63621e-06 1.72701e-07)
(0.0012657 7.01304e-06 1.61625e-07)
(0.00125557 6.43452e-06 1.51799e-07)
(0.00124617 5.89653e-06 1.43017e-07)
(0.00123741 5.39565e-06 1.3511e-07)
(0.00122921 4.92899e-06 1.27948e-07)
(0.00122153 4.49402e-06 1.21426e-07)
(0.00121431 4.08866e-06 1.15445e-07)
(0.00120749 3.71099e-06 1.0994e-07)
(0.00120106 3.35975e-06 1.04839e-07)
(0.00119496 3.0329e-06 1.00117e-07)
(0.00118918 2.7313e-06 9.56809e-08)
(0.00118368 2.44899e-06 9.15936e-08)
(0.00117845 2.19865e-06 8.75872e-08)
(0.00117343 1.94369e-06 8.42112e-08)
(0.00116871 1.77766e-06 8.00654e-08)
(0.00116399 1.4438e-06 7.83043e-08)
(0.0011599 1.61643e-06 7.20192e-08)
(0.00115484 4.55736e-07 7.39791e-08)
(0.00115268 2.78339e-06 6.00353e-08)
(0.0011432 -3.85804e-06 1.8167e-07)
(0.00560508 2.48873e-05 0.00029527)
(0.00348634 3.19097e-05 6.8561e-05)
(0.00236678 3.29948e-05 1.53586e-05)
(0.00201478 3.08458e-05 2.95256e-06)
(0.00182897 2.80114e-05 1.23553e-06)
(0.00171363 2.52317e-05 8.45314e-07)
(0.00163167 2.26644e-05 6.75979e-07)
(0.00156903 2.03784e-05 5.50668e-07)
(0.00151928 1.83655e-05 4.53599e-07)
(0.00147863 1.65966e-05 3.79674e-07)
(0.00144469 1.50382e-05 3.22505e-07)
(0.00141587 1.36585e-05 2.77487e-07)
(0.00139103 1.243e-05 2.41375e-07)
(0.00136938 1.13296e-05 2.11915e-07)
(0.00135031 1.03382e-05 1.8753e-07)
(0.00133337 9.44019e-06 1.67092e-07)
(0.0013182 8.62274e-06 1.49781e-07)
(0.00130453 7.87543e-06 1.34987e-07)
(0.00129212 7.18973e-06 1.22239e-07)
(0.00128081 6.55858e-06 1.11186e-07)
(0.00127044 5.97619e-06 1.01538e-07)
(0.0012609 5.43767e-06 9.3076e-08)
(0.00125207 4.93896e-06 8.56111e-08)
(0.00124389 4.47659e-06 7.90059e-08)
(0.00123627 4.04763e-06 7.31349e-08)
(0.00122916 3.64955e-06 6.78944e-08)
(0.0012225 3.28026e-06 6.32063e-08)
(0.00121625 2.93782e-06 5.90006e-08)
(0.00121037 2.62097e-06 5.52035e-08)
(0.00120482 2.32781e-06 5.17866e-08)
(0.00119958 2.05913e-06 4.86697e-08)
(0.00119462 1.80961e-06 4.58857e-08)
(0.00118992 1.59092e-06 4.32585e-08)
(0.00118543 1.37076e-06 4.10714e-08)
(0.0011812 1.23301e-06 3.86349e-08)
(0.00117708 9.54517e-07 3.71492e-08)
(0.00117328 1.12161e-06 3.54261e-08)
(0.00116929 1.86229e-07 2.85745e-08)
(0.00116626 2.15526e-06 5.33034e-08)
(0.00116031 -2.90781e-06 2.95809e-08)
(0.005603 2.06431e-05 0.000295425)
(0.00348001 3.00625e-05 6.88203e-05)
(0.0023591 3.20574e-05 1.56022e-05)
(0.00200672 3.05767e-05 3.1746e-06)
(0.00182116 2.80205e-05 1.42759e-06)
(0.0017063 2.52901e-05 1.00837e-06)
(0.00162491 2.26849e-05 8.13358e-07)
(0.00156283 2.03337e-05 6.6682e-07)
(0.00151364 1.82595e-05 5.52769e-07)
(0.0014735 1.64447e-05 4.65394e-07)
(0.00144003 1.48584e-05 3.97614e-07)
(0.00141164 1.34671e-05 3.44216e-07)
(0.00138721 1.22403e-05 3.0145e-07)
(0.00136593 1.11518e-05 2.66663e-07)
(0.0013472 1.01793e-05 2.37965e-07)
(0.00133059 9.30498e-06 2.13989e-07)
(0.00131573 8.51402e-06 1.93726e-07)
(0.00130234 7.79451e-06 1.76429e-07)
(0.00129022 7.13684e-06 1.6152e-07)
(0.00127918 6.53314e-06 1.48561e-07)
(0.00126908 5.97704e-06 1.37208e-07)
(0.00125979 5.46331e-06 1.27189e-07)
(0.00125122 4.98762e-06 1.1829e-07)
(0.00124328 4.54639e-06 1.10333e-07)
(0.00123591 4.13663e-06 1.03184e-07)
(0.00122904 3.75584e-06 9.6718e-08)
(0.00122262 3.40195e-06 9.08464e-08)
(0.00121661 3.07316e-06 8.54959e-08)
(0.00121096 2.76829e-06 8.05886e-08)
(0.00120565 2.48567e-06 7.60774e-08)
(0.00120064 2.22613e-06 7.19102e-08)
(0.00119591 1.9851e-06 6.80622e-08)
(0.00119144 1.77339e-06 6.44603e-08)
(0.00118719 1.56322e-06 6.11378e-08)
(0.00118316 1.42858e-06 5.80417e-08)
(0.00117933 1.18263e-06 5.46622e-08)
(0.00117559 1.31321e-06 5.41472e-08)
(0.00117225 5.98397e-07 3.93162e-08)
(0.00116849 2.10896e-06 8.15726e-08)
(0.00116462 -1.34803e-06 -2.06672e-08)
(0.00560161 1.56281e-05 0.000295385)
(0.00347577 2.40841e-05 6.87263e-05)
(0.00235408 2.62753e-05 1.54538e-05)
(0.00200186 2.55913e-05 3.02374e-06)
(0.00181672 2.38356e-05 1.2881e-06)
(0.00170234 2.17705e-05 8.83483e-07)
(0.00162138 1.96993e-05 7.03196e-07)
(0.00155968 1.77658e-05 5.70223e-07)
(0.00151079 1.60177e-05 4.68035e-07)
(0.0014709 1.446e-05 3.90702e-07)
(0.00143764 1.30792e-05 3.31268e-07)
(0.00140942 1.18554e-05 2.84735e-07)
(0.00138513 1.07677e-05 2.47595e-07)
(0.00136397 9.79688e-06 2.17411e-07)
(0.00134537 8.92597e-06 1.92495e-07)
(0.00132885 8.14065e-06 1.71638e-07)
(0.00131409 7.42893e-06 1.53974e-07)
(0.0013008 6.78091e-06 1.38859e-07)
(0.00128876 6.18841e-06 1.25804e-07)
(0.0012778 5.64471e-06 1.14444e-07)
(0.00126778 5.14425e-06 1.0449e-07)
(0.00125858 4.68244e-06 9.57119e-08)
(0.00125009 4.25544e-06 8.79288e-08)
(0.00124223 3.86007e-06 8.09928e-08)
(0.00123494 3.49361e-06 7.47903e-08)
(0.00122815 3.15382e-06 6.92151e-08)
(0.00122181 2.83883e-06 6.41876e-08)
(0.00121588 2.54701e-06 5.96411e-08)
(0.00121031 2.27734e-06 5.55131e-08)
(0.00120508 2.02836e-06 5.17603e-08)
(0.00120016 1.8009e-06 4.83414e-08)
(0.00119551 1.59118e-06 4.52044e-08)
(0.00119112 1.40882e-06 4.23583e-08)
(0.00118696 1.23113e-06 3.96408e-08)
(0.001183 1.12056e-06 3.75203e-08)
(0.00117931 9.28657e-07 3.42026e-08)
(0.00117554 1.04396e-06 3.62525e-08)
(0.00117262 5.45383e-07 1.78366e-08)
(0.00116836 1.70371e-06 7.21729e-08)
(0.00116613 -5.15276e-07 -7.21707e-08)
(0.00560094 1.2886e-05 0.000295428)
(0.00347324 2.10616e-05 6.88154e-05)
(0.00235028 2.37315e-05 1.55517e-05)
(0.00199752 2.36639e-05 3.12786e-06)
(0.00181221 2.23869e-05 1.39143e-06)
(0.00169789 2.06365e-05 9.8094e-07)
(0.00161708 1.87667e-05 7.92589e-07)
(0.0015556 1.69605e-05 6.50987e-07)
(0.00150694 1.52965e-05 5.40518e-07)
(0.00146728 1.37994e-05 4.55635e-07)
(0.00143424 1.24677e-05 3.89542e-07)
(0.00140622 1.1288e-05 3.37252e-07)
(0.00138212 1.02427e-05 2.95184e-07)
(0.00136113 9.31397e-06 2.60816e-07)
(0.00134268 8.48529e-06 2.32347e-07)
(0.0013263 7.74221e-06 2.08476e-07)
(0.00131167 7.0724e-06 1.88245e-07)
(0.00129849 6.46557e-06 1.70932e-07)
(0.00128656 5.91318e-06 1.55985e-07)
(0.0012757 5.40818e-06 1.42978e-07)
(0.00126577 4.94479e-06 1.31577e-07)
(0.00125665 4.51821e-06 1.21519e-07)
(0.00124824 4.12449e-06 1.12588e-07)
(0.00124046 3.76038e-06 1.04612e-07)
(0.00123323 3.42314e-06 9.74533e-08)
(0.00122651 3.11051e-06 9.09983e-08)
(0.00122023 2.82068e-06 8.51469e-08)
(0.00121436 2.55207e-06 7.98216e-08)
(0.00120885 2.30372e-06 7.49574e-08)
(0.00120368 2.07433e-06 7.04966e-08)
(0.00119881 1.86467e-06 6.63987e-08)
(0.00119422 1.67172e-06 6.25897e-08)
(0.00118987 1.50385e-06 5.91382e-08)
(0.00118578 1.34319e-06 5.57088e-08)
(0.00118185 1.24098e-06 5.31731e-08)
(0.00117827 1.08329e-06 4.87131e-08)
(0.00117446 1.16922e-06 5.12381e-08)
(0.00117182 8.27637e-07 2.90715e-08)
(0.00116724 1.67678e-06 8.83158e-08)
(0.00116587 2.95683e-07 -8.05116e-08)
(0.00560043 1.0174e-05 0.000295418)
(0.00347131 1.70114e-05 6.87909e-05)
(0.0023474 1.94198e-05 1.54997e-05)
(0.00199439 1.95643e-05 3.06469e-06)
(0.00180912 1.86545e-05 1.32493e-06)
(0.00169498 1.72905e-05 9.14603e-07)
(0.00161442 1.57846e-05 7.28836e-07)
(0.00155318 1.43022e-05 5.91168e-07)
(0.00150474 1.29196e-05 4.85217e-07)
(0.00146528 1.16651e-05 4.04935e-07)
(0.00143241 1.05423e-05 3.43245e-07)
(0.00140453 9.54316e-06 2.94998e-07)
(0.00138054 8.65477e-06 2.56566e-07)
(0.00135966 7.86327e-06 2.25413e-07)
(0.00134128 7.15552e-06 1.99763e-07)
(0.00132498 6.51976e-06 1.78351e-07)
(0.0013104 5.94591e-06 1.60251e-07)
(0.00129727 5.42545e-06 1.44797e-07)
(0.00128539 4.9513e-06 1.31464e-07)
(0.00127457 4.51761e-06 1.19871e-07)
(0.00126468 4.11953e-06 1.09712e-07)
(0.00125559 3.75307e-06 1.00752e-07)
(0.00124721 3.41492e-06 9.27961e-08)
(0.00123945 3.10233e-06 8.5702e-08)
(0.00123226 2.81302e-06 7.93345e-08)
(0.00122556 2.54511e-06 7.36054e-08)
(0.00121931 2.29705e-06 6.84225e-08)
(0.00121346 2.06755e-06 6.37218e-08)
(0.00120797 1.85584e-06 5.94391e-08)
(0.00120282 1.66089e-06 5.55256e-08)
(0.00119797 1.48346e-06 5.19541e-08)
(0.00119341 1.32129e-06 4.86409e-08)
(0.00118908 1.18147e-06 4.56942e-08)
(0.00118502 1.05053e-06 4.2675e-08)
(0.00118111 9.69434e-07 4.07606e-08)
(0.00117758 8.53687e-07 3.64156e-08)
(0.00117376 9.28412e-07 4.03493e-08)
(0.00117132 7.15943e-07 1.6885e-08)
(0.00116655 1.35806e-06 8.11716e-08)
(0.00116592 5.38356e-07 -1.01523e-07)
(0.00560017 8.22273e-06 0.00029543)
(0.00347016 1.41092e-05 6.88215e-05)
(0.00234539 1.64737e-05 1.55359e-05)
(0.00199195 1.69033e-05 3.10737e-06)
(0.00180648 1.6352e-05 1.37214e-06)
(0.00169229 1.53172e-05 9.6338e-07)
(0.00161176 1.40886e-05 7.77198e-07)
(0.00155061 1.28303e-05 6.37811e-07)
(0.00150229 1.16276e-05 5.29367e-07)
(0.00146296 1.05188e-05 4.4622e-07)
(0.0014302 9.51659e-06 3.81549e-07)
(0.00140244 8.61947e-06 3.30388e-07)
(0.00137856 7.81958e-06 2.89206e-07)
(0.00135778 7.10651e-06 2.55519e-07)
(0.0013395 6.46947e-06 2.27573e-07)
(0.00132328 5.89833e-06 2.04107e-07)
(0.00130877 5.38409e-06 1.84182e-07)
(0.00129572 4.91901e-06 1.67106e-07)
(0.0012839 4.49652e-06 1.52344e-07)
(0.00127314 4.11114e-06 1.39483e-07)
(0.0012633 3.75829e-06 1.28201e-07)
(0.00125426 3.43417e-06 1.18243e-07)
(0.00124593 3.13565e-06 1.09394e-07)
(0.00123822 2.8601e-06 1.01497e-07)
(0.00123106 2.60538e-06 9.44156e-08)
(0.0012244 2.36969e-06 8.80287e-08)
(0.00121818 2.15159e-06 8.2243e-08)
(0.00121237 1.94988e-06 7.69885e-08)
(0.00120692 1.76383e-06 7.21951e-08)
(0.0012018 1.59258e-06 6.77983e-08)
(0.00119698 1.43675e-06 6.37753e-08)
(0.00119244 1.29466e-06 6.00218e-08)
(0.00118814 1.17214e-06 5.66899e-08)
(0.00118411 1.05932e-06 5.32222e-08)
(0.00118022 9.88037e-07 5.10326e-08)
(0.00117675 8.97279e-07 4.60293e-08)
(0.00117292 9.51961e-07 5.00821e-08)
(0.00117063 8.18698e-07 2.47931e-08)
(0.00116574 1.28422e-06 9.0827e-08)
(0.00116548 7.96975e-07 -1.0167e-07)
(0.00559996 6.37933e-06 0.000295427)
(0.00346924 1.10402e-05 6.88153e-05)
(0.00234381 1.2993e-05 1.55186e-05)
(0.00199008 1.33998e-05 3.08331e-06)
(0.00180451 1.30075e-05 1.34402e-06)
(0.00169035 1.2205e-05 9.3257e-07)
(0.00160993 1.12315e-05 7.45152e-07)
(0.00154892 1.02247e-05 6.05694e-07)
(0.00150074 9.25751e-06 4.98001e-07)
(0.00146154 8.36396e-06 4.16137e-07)
(0.00142891 7.55571e-06 3.53052e-07)
(0.00140126 6.83243e-06 3.03627e-07)
(0.00137747 6.18802e-06 2.64204e-07)
(0.00135677 5.61408e-06 2.32239e-07)
(0.00133855 5.10178e-06 2.05924e-07)
(0.00132239 4.64283e-06 1.83966e-07)
(0.00130793 4.22987e-06 1.65421e-07)
(0.00129492 3.85653e-06 1.49597e-07)
(0.00128313 3.51749e-06 1.35964e-07)
(0.0012724 3.20827e-06 1.24112e-07)
(0.00126259 2.9252e-06 1.1374e-07)
(0.00125357 2.6652e-06 1.04593e-07)
(0.00124526 2.42576e-06 9.64716e-08)
(0.00123757 2.2048e-06 8.92329e-08)
(0.00123043 2.00061e-06 8.27348e-08)
(0.00122379 1.81178e-06 7.68883e-08)
(0.00121759 1.63717e-06 7.15895e-08)
(0.00121178 1.47587e-06 6.67803e-08)
(0.00120635 1.32733e-06 6.23972e-08)
(0.00120124 1.19092e-06 5.83817e-08)
(0.00119643 1.06723e-06 5.47235e-08)
(0.00119191 9.55115e-07 5.1296e-08)
(0.00118762 8.59251e-07 4.82983e-08)
(0.00118361 7.72756e-07 4.51053e-08)
(0.00117974 7.19716e-07 4.32927e-08)
(0.0011763 6.57496e-07 3.84116e-08)
(0.00117247 7.0459e-07 4.32161e-08)
(0.00117029 6.33077e-07 1.74947e-08)
(0.00116535 9.8264e-07 8.58827e-08)
(0.00116544 7.13359e-07 -1.12487e-07)
(0.00559985 4.82813e-06 0.00029543)
(0.00346868 8.44927e-06 6.88258e-05)
(0.00234275 1.00857e-05 1.55316e-05)
(0.00198873 1.05288e-05 3.09971e-06)
(0.00180301 1.03337e-05 1.36369e-06)
(0.00168879 9.78562e-06 9.54399e-07)
(0.00160837 9.0738e-06 7.68243e-07)
(0.0015474 8.31158e-06 6.29282e-07)
(0.00149928 7.56279e-06 5.2146e-07)
(0.00146014 6.86001e-06 4.38999e-07)
(0.00142758 6.21693e-06 3.75008e-07)
(0.0014 5.63656e-06 3.24486e-07)
(0.00137627 5.11626e-06 2.83876e-07)
(0.00135562 4.65083e-06 2.50689e-07)
(0.00133746 4.23419e-06 2.23175e-07)
(0.00132135 3.86027e-06 2.00074e-07)
(0.00130694 3.52351e-06 1.80467e-07)
(0.00129396 3.219e-06 1.6365e-07)
(0.00128222 2.94252e-06 1.49113e-07)
(0.00127152 2.6905e-06 1.36445e-07)
(0.00126174 2.45995e-06 1.25326e-07)
(0.00125276 2.24837e-06 1.15509e-07)
(0.00124448 2.05367e-06 1.06788e-07)
(0.00123681 1.87413e-06 9.9002e-08)
(0.0012297 1.70832e-06 9.20144e-08)
(0.00122308 1.55506e-06 8.57158e-08)
(0.0012169 1.4134e-06 8.00142e-08)
(0.00121112 1.28256e-06 7.48337e-08)
(0.0012057 1.16208e-06 7.01113e-08)
(0.00120061 1.05146e-06 6.57821e-08)
(0.00119582 9.51133e-07 6.18283e-08)
(0.00119132 8.60322e-07 5.8126e-08)
(0.00118705 7.82543e-07 5.488e-08)
(0.00118306 7.1316e-07 5.14166e-08)
(0.0011792 6.69557e-07 4.9423e-08)
(0.0011758 6.22926e-07 4.41749e-08)
(0.00117198 6.54946e-07 4.89651e-08)
(0.00116988 6.13988e-07 2.23504e-08)
(0.0011649 8.56343e-07 9.1328e-08)
(0.00116515 7.02064e-07 -1.11633e-07)
(0.00559976 3.35122e-06 0.000295428)
(0.00346827 5.87521e-06 6.88239e-05)
(0.00234197 7.04128e-06 1.5526e-05)
(0.00198774 7.35769e-06 3.09124e-06)
(0.00180193 7.22127e-06 1.35302e-06)
(0.0016877 6.82797e-06 9.41775e-07)
(0.00160731 6.31504e-06 7.54215e-07)
(0.0015464 5.76528e-06 6.14422e-07)
(0.00149835 5.22579e-06 5.06244e-07)
(0.0014593 4.72078e-06 4.23815e-07)
(0.00142681 4.26035e-06 3.60142e-07)
(0.00139929 3.84662e-06 3.1014e-07)
(0.00137562 3.47743e-06 2.70173e-07)
(0.00135502 3.14873e-06 2.37711e-07)
(0.00133691 2.8558e-06 2.1094e-07)
(0.00132083 2.59401e-06 1.88583e-07)
(0.00130645 2.35911e-06 1.6969e-07)
(0.0012935 2.14739e-06 1.53556e-07)
(0.00128178 1.95567e-06 1.39654e-07)
(0.00127111 1.78131e-06 1.27568e-07)
(0.00126134 1.62208e-06 1.16985e-07)
(0.00125237 1.47617e-06 1.07653e-07)
(0.0012441 1.34207e-06 9.93751e-08)
(0.00123645 1.21853e-06 9.19865e-08)
(0.00122935 1.10454e-06 8.53645e-08)
(0.00122274 9.99263e-07 7.9396e-08)
(0.00121657 9.02054e-07 7.3994e-08)
(0.0012108 8.12375e-07 6.90836e-08)
(0.00120539 7.29927e-07 6.4614e-08)
(0.00120031 6.544e-07 6.05119e-08)
(0.00119552 5.86127e-07 5.67719e-08)
(0.00119103 5.24663e-07 5.32675e-08)
(0.00118677 4.7249e-07 5.02108e-08)
(0.00118279 4.26734e-07 4.69057e-08)
(0.00117894 3.99161e-07 4.51234e-08)
(0.00117556 3.7159e-07 3.99681e-08)
(0.00117175 3.97351e-07 4.51236e-08)
(0.0011697 3.81288e-07 1.83904e-08)
(0.0011647 5.50565e-07 8.844e-08)
(0.00116513 4.75745e-07 -1.17185e-07)
(0.00559971 1.99019e-06 0.000295428)
(0.00346803 3.50312e-06 6.88265e-05)
(0.00234151 4.23884e-06 1.553e-05)
(0.00198714 4.46391e-06 3.09678e-06)
(0.00180125 4.41941e-06 1.36009e-06)
(0.00168697 4.2144e-06 9.49987e-07)
(0.00160658 3.93053e-06 7.63283e-07)
(0.00154568 3.61758e-06 6.24065e-07)
(0.00149767 3.30469e-06 5.16179e-07)
(0.00145864 3.00747e-06 4.33799e-07)
(0.00142618 2.73311e-06 3.69985e-07)
(0.00139869 2.48381e-06 3.19695e-07)
(0.00137506 2.25913e-06 2.79343e-07)
(0.00135448 2.05727e-06 2.46429e-07)
(0.00133639 1.8759e-06 2.1919e-07)
(0.00132033 1.71266e-06 1.96348e-07)
(0.00130598 1.56526e-06 1.76983e-07)
(0.00129305 1.4317e-06 1.60395e-07)
(0.00128135 1.31025e-06 1.46065e-07)
(0.00127069 1.19939e-06 1.33578e-07)
(0.00126094 1.09787e-06 1.2263e-07)
(0.00125199 1.00464e-06 1.12966e-07)
(0.00124373 9.18817e-07 1.04383e-07)
(0.00123609 8.39653e-07 9.67149e-08)
(0.001229 7.66535e-07 8.98383e-08)
(0.0012224 6.98956e-07 8.364e-08)
(0.00121625 6.36504e-07 7.80314e-08)
(0.00121048 5.78846e-07 7.29312e-08)
(0.00120508 5.25788e-07 6.82847e-08)
(0.00120001 4.7712e-07 6.40258e-08)
(0.00119524 4.33041e-07 6.01426e-08)
(0.00119076 3.93287e-07 5.64956e-08)
(0.00118651 3.59314e-07 5.33204e-08)
(0.00118254 3.29532e-07 4.98836e-08)
(0.0011787 3.10667e-07 4.80022e-08)
(0.00117534 2.92673e-07 4.26813e-08)
(0.00117153 3.05226e-07 4.7804e-08)
(0.00116951 2.9606e-07 2.06992e-08)
(0.00116451 3.88224e-07 9.09016e-08)
(0.001165 3.47725e-07 -1.16672e-07)
(0.00559969 6.53513e-07 0.000295425)
(0.00346791 1.14437e-06 6.8825e-05)
(0.00234128 1.38021e-06 1.55283e-05)
(0.00198683 1.44108e-06 3.09449e-06)
(0.00180091 1.41188e-06 1.35718e-06)
(0.00168662 1.32866e-06 9.4634e-07)
(0.00160624 1.22004e-06 7.59038e-07)
(0.00154536 1.10349e-06 6.19401e-07)
(0.00149736 9.89244e-07 5.11258e-07)
(0.00145836 8.82706e-07 4.28758e-07)
(0.00142593 7.86214e-07 3.64934e-07)
(0.00139846 7.00268e-07 3.14718e-07)
(0.00137485 6.24394e-07 2.7451e-07)
(0.0013543 5.5766e-07 2.41781e-07)
(0.00133622 4.98951e-07 2.1475e-07)
(0.00132018 4.47174e-07 1.92128e-07)
(0.00130583 4.01316e-07 1.72985e-07)
(0.00129292 3.6049e-07 1.56616e-07)
(0.00128122 3.23945e-07 1.42494e-07)
(0.00127057 2.91043e-07 1.30211e-07)
(0.00126083 2.6127e-07 1.19444e-07)
(0.00125188 2.34203e-07 1.09947e-07)
(0.00124363 2.09486e-07 1.0152e-07)
(0.001236 1.86858e-07 9.40035e-08)
(0.00122891 1.66077e-07 8.72595e-08)
(0.00122232 1.46968e-07 8.11801e-08)
(0.00121616 1.29402e-07 7.56819e-08)
(0.00121041 1.13258e-07 7.06851e-08)
(0.00120501 9.84889e-08 6.61346e-08)
(0.00119994 8.50274e-08 6.19609e-08)
(0.00119518 7.29543e-08 5.81579e-08)
(0.00119069 6.22025e-08 5.4586e-08)
(0.00118645 5.32728e-08 5.14829e-08)
(0.00118249 4.56729e-08 4.81078e-08)
(0.00117865 4.16316e-08 4.63028e-08)
(0.00117529 3.80177e-08 4.10254e-08)
(0.00117149 4.45594e-08 4.62625e-08)
(0.00116949 4.48394e-08 1.9156e-08)
(0.00116448 7.98665e-08 8.96311e-08)
(0.00116503 7.258e-08 -1.18777e-07)
(0.00559969 -6.53515e-07 0.000295425)
(0.00346791 -1.14437e-06 6.8825e-05)
(0.00234128 -1.38021e-06 1.55283e-05)
(0.00198683 -1.44108e-06 3.09449e-06)
(0.00180091 -1.41187e-06 1.35717e-06)
(0.00168662 -1.32866e-06 9.46341e-07)
(0.00160624 -1.22003e-06 7.59041e-07)
(0.00154536 -1.10349e-06 6.19404e-07)
(0.00149736 -9.89248e-07 5.11257e-07)
(0.00145836 -8.82714e-07 4.28756e-07)
(0.00142593 -7.86212e-07 3.64933e-07)
(0.00139846 -7.00261e-07 3.14717e-07)
(0.00137485 -6.2439e-07 2.7451e-07)
(0.0013543 -5.57653e-07 2.4178e-07)
(0.00133622 -4.98946e-07 2.14751e-07)
(0.00132018 -4.47172e-07 1.92129e-07)
(0.00130583 -4.01317e-07 1.72985e-07)
(0.00129292 -3.60485e-07 1.56616e-07)
(0.00128122 -3.23939e-07 1.42492e-07)
(0.00127057 -2.91038e-07 1.30207e-07)
(0.00126083 -2.61265e-07 1.19443e-07)
(0.00125188 -2.34199e-07 1.09948e-07)
(0.00124363 -2.09487e-07 1.01521e-07)
(0.001236 -1.8685e-07 9.40023e-08)
(0.00122891 -1.6607e-07 8.72563e-08)
(0.00122232 -1.46964e-07 8.11782e-08)
(0.00121616 -1.29391e-07 7.56793e-08)
(0.00121041 -1.13247e-07 7.06857e-08)
(0.00120501 -9.84759e-08 6.61334e-08)
(0.00119994 -8.50176e-08 6.19598e-08)
(0.00119518 -7.29499e-08 5.81602e-08)
(0.00119069 -6.2199e-08 5.45842e-08)
(0.00118645 -5.32644e-08 5.14814e-08)
(0.00118249 -4.56624e-08 4.81069e-08)
(0.00117865 -4.16234e-08 4.63046e-08)
(0.00117529 -3.80118e-08 4.10233e-08)
(0.00117149 -4.45544e-08 4.62638e-08)
(0.00116949 -4.48394e-08 1.91572e-08)
(0.00116448 -7.98629e-08 8.96291e-08)
(0.00116503 -7.25738e-08 -1.18776e-07)
(0.00559971 -1.99019e-06 0.000295428)
(0.00346803 -3.50313e-06 6.88265e-05)
(0.00234151 -4.23885e-06 1.553e-05)
(0.00198714 -4.4639e-06 3.09678e-06)
(0.00180125 -4.41941e-06 1.36009e-06)
(0.00168697 -4.21439e-06 9.49987e-07)
(0.00160658 -3.93052e-06 7.63282e-07)
(0.00154568 -3.61759e-06 6.24062e-07)
(0.00149767 -3.30469e-06 5.16179e-07)
(0.00145864 -3.00747e-06 4.33799e-07)
(0.00142618 -2.73311e-06 3.69983e-07)
(0.00139869 -2.48381e-06 3.1969e-07)
(0.00137506 -2.25913e-06 2.79343e-07)
(0.00135448 -2.05726e-06 2.46427e-07)
(0.00133639 -1.8759e-06 2.19191e-07)
(0.00132033 -1.71265e-06 1.96347e-07)
(0.00130598 -1.56525e-06 1.76982e-07)
(0.00129305 -1.4317e-06 1.60394e-07)
(0.00128135 -1.31024e-06 1.46061e-07)
(0.00127069 -1.19938e-06 1.33582e-07)
(0.00126094 -1.09787e-06 1.22632e-07)
(0.00125199 -1.00464e-06 1.12965e-07)
(0.00124373 -9.18815e-07 1.04379e-07)
(0.00123609 -8.39648e-07 9.67139e-08)
(0.001229 -7.66529e-07 8.98361e-08)
(0.0012224 -6.98951e-07 8.36396e-08)
(0.00121625 -6.36501e-07 7.80309e-08)
(0.00121048 -5.78836e-07 7.29306e-08)
(0.00120508 -5.2578e-07 6.82841e-08)
(0.00120001 -4.77115e-07 6.40244e-08)
(0.00119524 -4.33035e-07 6.01414e-08)
(0.00119076 -3.9328e-07 5.64971e-08)
(0.00118651 -3.59308e-07 5.33195e-08)
(0.00118254 -3.2952e-07 4.9884e-08)
(0.0011787 -3.10653e-07 4.80045e-08)
(0.00117534 -2.92668e-07 4.26811e-08)
(0.00117153 -3.05222e-07 4.78085e-08)
(0.00116951 -2.96058e-07 2.07001e-08)
(0.00116451 -3.88223e-07 9.08991e-08)
(0.001165 -3.47724e-07 -1.16672e-07)
(0.00559976 -3.35122e-06 0.000295428)
(0.00346827 -5.87521e-06 6.88239e-05)
(0.00234197 -7.04127e-06 1.5526e-05)
(0.00198774 -7.35768e-06 3.09124e-06)
(0.00180193 -7.22126e-06 1.35302e-06)
(0.0016877 -6.82797e-06 9.41774e-07)
(0.00160731 -6.31505e-06 7.54216e-07)
(0.0015464 -5.76528e-06 6.14419e-07)
(0.00149835 -5.22579e-06 5.06241e-07)
(0.0014593 -4.72078e-06 4.23813e-07)
(0.00142681 -4.26036e-06 3.60143e-07)
(0.00139929 -3.84662e-06 3.10139e-07)
(0.00137562 -3.47743e-06 2.70178e-07)
(0.00135502 -3.14873e-06 2.3771e-07)
(0.00133691 -2.8558e-06 2.10943e-07)
(0.00132083 -2.59401e-06 1.88583e-07)
(0.00130645 -2.3591e-06 1.69691e-07)
(0.0012935 -2.14738e-06 1.53559e-07)
(0.00128178 -1.95567e-06 1.39654e-07)
(0.00127111 -1.7813e-06 1.27568e-07)
(0.00126134 -1.62208e-06 1.16984e-07)
(0.00125237 -1.47617e-06 1.07656e-07)
(0.0012441 -1.34206e-06 9.93741e-08)
(0.00123645 -1.21853e-06 9.19872e-08)
(0.00122935 -1.10454e-06 8.53625e-08)
(0.00122274 -9.99256e-07 7.9394e-08)
(0.00121657 -9.02049e-07 7.39913e-08)
(0.0012108 -8.12368e-07 6.90843e-08)
(0.00120539 -7.29919e-07 6.46104e-08)
(0.00120031 -6.54391e-07 6.05117e-08)
(0.00119552 -5.86121e-07 5.67753e-08)
(0.00119103 -5.24655e-07 5.32646e-08)
(0.00118677 -4.7248e-07 5.02123e-08)
(0.00118279 -4.26725e-07 4.69097e-08)
(0.00117894 -3.99155e-07 4.51266e-08)
(0.00117556 -3.71582e-07 3.99688e-08)
(0.00117175 -3.97351e-07 4.51264e-08)
(0.0011697 -3.8128e-07 1.8391e-08)
(0.0011647 -5.50558e-07 8.84394e-08)
(0.00116513 -4.75744e-07 -1.17183e-07)
(0.00559985 -4.82813e-06 0.00029543)
(0.00346868 -8.44928e-06 6.88258e-05)
(0.00234275 -1.00857e-05 1.55316e-05)
(0.00198873 -1.05288e-05 3.09972e-06)
(0.00180301 -1.03337e-05 1.36369e-06)
(0.00168879 -9.78562e-06 9.54401e-07)
(0.00160837 -9.0738e-06 7.68243e-07)
(0.0015474 -8.31158e-06 6.29281e-07)
(0.00149928 -7.56279e-06 5.21455e-07)
(0.00146014 -6.86001e-06 4.39e-07)
(0.00142758 -6.21693e-06 3.75008e-07)
(0.0014 -5.63655e-06 3.24484e-07)
(0.00137627 -5.11625e-06 2.83872e-07)
(0.00135562 -4.65083e-06 2.50688e-07)
(0.00133746 -4.23419e-06 2.23175e-07)
(0.00132135 -3.86027e-06 2.00077e-07)
(0.00130694 -3.52351e-06 1.80466e-07)
(0.00129396 -3.219e-06 1.63653e-07)
(0.00128222 -2.94252e-06 1.4911e-07)
(0.00127152 -2.6905e-06 1.36448e-07)
(0.00126174 -2.45994e-06 1.25326e-07)
(0.00125276 -2.24836e-06 1.15511e-07)
(0.00124448 -2.05366e-06 1.06789e-07)
(0.00123681 -1.87413e-06 9.89985e-08)
(0.0012297 -1.70832e-06 9.20144e-08)
(0.00122308 -1.55505e-06 8.57156e-08)
(0.0012169 -1.4134e-06 8.00133e-08)
(0.00121112 -1.28255e-06 7.48317e-08)
(0.0012057 -1.16207e-06 7.01132e-08)
(0.00120061 -1.05145e-06 6.57826e-08)
(0.00119582 -9.51125e-07 6.18309e-08)
(0.00119132 -8.6032e-07 5.81248e-08)
(0.00118705 -7.82537e-07 5.4882e-08)
(0.00118306 -7.13152e-07 5.14134e-08)
(0.0011792 -6.69547e-07 4.9424e-08)
(0.0011758 -6.22918e-07 4.41754e-08)
(0.00117198 -6.54941e-07 4.89646e-08)
(0.00116988 -6.13977e-07 2.23505e-08)
(0.0011649 -8.56332e-07 9.13264e-08)
(0.00116515 -7.0206e-07 -1.11633e-07)
(0.00559996 -6.37933e-06 0.000295427)
(0.00346924 -1.10402e-05 6.88153e-05)
(0.00234381 -1.2993e-05 1.55186e-05)
(0.00199008 -1.33998e-05 3.08331e-06)
(0.00180451 -1.30075e-05 1.34402e-06)
(0.00169035 -1.2205e-05 9.32569e-07)
(0.00160993 -1.12315e-05 7.4515e-07)
(0.00154892 -1.02247e-05 6.05694e-07)
(0.00150074 -9.2575e-06 4.98001e-07)
(0.00146154 -8.36396e-06 4.16136e-07)
(0.00142891 -7.5557e-06 3.53053e-07)
(0.00140126 -6.83242e-06 3.03624e-07)
(0.00137747 -6.18802e-06 2.64206e-07)
(0.00135677 -5.61407e-06 2.3224e-07)
(0.00133855 -5.10178e-06 2.05924e-07)
(0.00132239 -4.64283e-06 1.83965e-07)
(0.00130793 -4.22986e-06 1.65419e-07)
(0.00129492 -3.85653e-06 1.49599e-07)
(0.00128313 -3.51748e-06 1.35963e-07)
(0.0012724 -3.20827e-06 1.24116e-07)
(0.00126259 -2.92519e-06 1.13737e-07)
(0.00125357 -2.66519e-06 1.04592e-07)
(0.00124526 -2.42576e-06 9.64721e-08)
(0.00123757 -2.2048e-06 8.92322e-08)
(0.00123043 -2.00061e-06 8.2736e-08)
(0.00122379 -1.81178e-06 7.68844e-08)
(0.00121759 -1.63717e-06 7.15906e-08)