/*--------------------------------*- C++ -*----------------------------------*\
| =========                 |                                                 |
| \\      /  F ield         | OpenFOAM: The Open Source CFD Toolbox           |
|  \\    /   O peration     | Version:  5.0                                   |
|   \\  /    A nd           | Web:      www.OpenFOAM.org                      |
|    \\/     M anipulation  |                                                 |
\*---------------------------------------------------------------------------*/
FoamFile
{
    version     2.0;
    format      ascii;
    class       volScalarField;
    location    "1500/air";
    object      alphat;
}
// * * * * * * * * * * * * * * * * * * * * * * * * * * * * * * * * * * * * * //

dimensions      [1 -1 -1 0 0 0 0];

internalField   nonuniform List<scalar> 
243000
(
0.000162976
0.000166671
0.000163797
0.000158958
0.000152856
0.000146094
0.000139055
0.000132026
0.000125202
0.00011876
0.000112769
0.000107272
0.000102241
9.77509e-05
9.38326e-05
9.06505e-05
8.83556e-05
8.72118e-05
8.72505e-05
8.82221e-05
8.95478e-05
9.05702e-05
9.0717e-05
8.96173e-05
8.72497e-05
8.54312e-05
8.21643e-05
0.000361815
0.000328947
0.000336055
0.000705841
0.000749367
0.000759903
0.000759586
0.000752363
0.000740303
0.000724924
0.00070734
0.000688305
0.000668413
0.000647938
0.000627216
0.000606397
0.000586237
0.000567311
0.000550745
0.000537525
0.000529396
0.000526236
0.000526497
0.000526911
0.00052424
0.000515653
0.000499729
0.00047679
0.000443886
0.000412522
0.000378195
0.000340783
0.00032091
0.000758455
0.00080155
0.000815268
0.000816342
0.000809593
0.000797554
0.000781858
0.000763692
0.000743855
0.000723047
0.000701584
0.000679925
0.000658327
0.0006377
0.000618724
0.000602668
0.000590543
0.000583948
0.00058229
0.000583608
0.000584617
0.000582258
0.000573782
0.000557692
0.0005341
0.00050345
0.00046752
0.000424807
0.000381288
0.000346417
0.000777662
0.000823335
0.000841173
0.00084571
0.0008416
0.000831659
0.000817509
0.000800398
0.000781214
0.00076076
0.000739464
0.000717927
0.000696514
0.000676287
0.000658046
0.000643195
0.000632733
0.000627962
0.000627711
0.000629661
0.000630676
0.000628027
0.000619264
0.000602985
0.000579133
0.000548142
0.000511114
0.000466349
0.000419525
0.000378575
0.000776188
0.000822328
0.00084676
0.00085682
0.000856721
0.000850046
0.000838471
0.000823356
0.000805705
0.000786408
0.000766028
0.0007453
0.000724715
0.000705476
0.000688487
0.000675271
0.000666765
0.00066388
0.000664865
0.000667189
0.000667952
0.000664773
0.000655575
0.000639131
0.000615304
0.000584412
0.000547399
0.000502647
0.00045406
0.000410151
0.00076171
0.000809074
0.000839245
0.000854829
0.000859709
0.000857033
0.000848636
0.000836126
0.000820566
0.000802963
0.000784002
0.000764551
0.000745236
0.00072739
0.000711992
0.000700684
0.000694271
0.000693231
0.00069529
0.000697845
0.000698268
0.000694483
0.000684804
0.00066822
0.000644584
0.000614158
0.000577728
0.0005339
0.000484731
0.000439258
0.000735871
0.000786694
0.000822319
0.000843556
0.000853631
0.000855433
0.000850724
0.000841015
0.000827882
0.000812398
0.000795231
0.000777392
0.00075965
0.000743491
0.000729902
0.000720676
0.000716404
0.0007171
0.000720113
0.000722831
0.000722906
0.000718532
0.000708386
0.000691686
0.00066833
0.000638553
0.000602998
0.000560502
0.000511964
0.0004656
0.000701136
0.000756982
0.000798129
0.000825067
0.000840535
0.000846979
0.000846261
0.000840008
0.000829577
0.000816142
0.000801008
0.000785041
0.000769104
0.000754815
0.000743198
0.000736147
0.000734003
0.000736307
0.000740177
0.000743042
0.000742802
0.000737915
0.000727356
0.000710576
0.000687541
0.000658493
0.000623968
0.000583106
0.000535793
0.000489161
0.00066317
0.000723199
0.000768939
0.00080126
0.000822001
0.000833131
0.000836494
0.00083379
0.000826369
0.000815651
0.000802616
0.000788439
0.000774471
0.000762167
0.000752619
0.000747776
0.000747696
0.00075148
0.00075613
0.000759152
0.00075867
0.000753372
0.000742492
0.000725683
0.000702998
0.000674711
0.000641377
0.000601918
0.000556044
0.000509984
0.000625961
0.000688567
0.000738392
0.00077459
0.000799598
0.00081515
0.000822563
0.000823525
0.000819283
0.00081127
0.000800558
0.000788634
0.000776503
0.000766196
0.000758747
0.000756096
0.000757958
0.000763107
0.000768475
0.000771684
0.000771052
0.000765468
0.000754377
0.000737609
0.000715316
0.000687895
0.000655518
0.000617301
0.00057294
0.000528137
0.000592998
0.000652889
0.00070652
0.000747099
0.000775838
0.000794465
0.000805594
0.000810082
0.00080909
0.000803878
0.000795616
0.00078582
0.000775743
0.000767419
0.000762041
0.000761505
0.000765178
0.000771582
0.000777623
0.000781057
0.000780382
0.000774646
0.000763472
0.000746836
0.000725053
0.000698314
0.000666776
0.000629713
0.000587208
0.000543812
0.000570609
0.000617595
0.000672906
0.000718044
0.000751099
0.000773297
0.000787136
0.000794412
0.000796453
0.000794052
0.000788268
0.000780671
0.000772607
0.000766247
0.000762874
0.00076432
0.000769659
0.000777229
0.000783907
0.000787612
0.000787007
0.000781262
0.000770146
0.000753796
0.000732454
0.000706345
0.000675548
0.000639499
0.000599184
0.000557313
0.000566395
0.000587536
0.00063828
0.000686986
0.000724758
0.000751107
0.000768181
0.00077797
0.000782149
0.000782335
0.000778974
0.000773564
0.000767503
0.000763035
0.000761558
0.000764829
0.000771649
0.000780281
0.000787614
0.000791637
0.00079121
0.000785604
0.000774745
0.000758724
0.000737819
0.000712295
0.000682157
0.000647015
0.00060905
0.0005688
0.000585411
0.000572731
0.000606312
0.000654355
0.000696418
0.000727401
0.000748303
0.000761056
0.000767519
0.00076942
0.000768204
0.000764869
0.000760738
0.00075808
0.000758364
0.000763271
0.000771441
0.000781015
0.00078896
0.00079338
0.000793241
0.000787963
0.000777434
0.000761804
0.000741386
0.000716423
0.000686909
0.00065334
0.000617314
0.00057856
0.000624015
0.000585758
0.000586785
0.000623278
0.000666497
0.000701903
0.000727128
0.000743345
0.000752469
0.000756351
0.000756592
0.000754979
0.000752612
0.000751653
0.000753511
0.000759858
0.000769172
0.000779587
0.000788164
0.000793077
0.000793216
0.000788261
0.000778198
0.000763144
0.00074332
0.000718944
0.000690065
0.000658538
0.000624231
0.000586818
0.000675542
0.000628042
0.000594804
0.000602797
0.000637802
0.000675087
0.000704476
0.000724575
0.000736768
0.000742949
0.000744874
0.000744373
0.000743448
0.000743988
0.00074722
0.000754791
0.000765067
0.000776208
0.000785396
0.000790874
0.000791461
0.000786977
0.000777374
0.000762872
0.000743689
0.000720032
0.000692718
0.000662847
0.000630009
0.000593763
0.000725406
0.000682832
0.000634266
0.000606448
0.00061803
0.000649405
0.000680841
0.000704674
0.000720246
0.00072905
0.00073291
0.000733744
0.000733638
0.000735339
0.000739705
0.000748265
0.000759319
0.000771078
0.000780867
0.000786955
0.000788122
0.000784247
0.000775255
0.00076138
0.000742852
0.000720182
0.000694665
0.000666319
0.000634769
0.000599523
0.000773887
0.000737978
0.000689738
0.000640984
0.000618263
0.000630996
0.000658292
0.000684126
0.000702914
0.000714556
0.00072059
0.00072297
0.000723833
0.000726047
0.000731208
0.00074049
0.000752134
0.000764398
0.000774764
0.000781502
0.000783366
0.000780197
0.000772031
0.00075886
0.000741099
0.000720004
0.000696034
0.000669038
0.000638603
0.000604193
0.000821125
0.000788559
0.000745915
0.000693907
0.000646557
0.000628821
0.00064149
0.000664566
0.000685201
0.000699514
0.000707858
0.000711965
0.000713974
0.000716622
0.000722041
0.000731716
0.000743738
0.000756391
0.000767288
0.000774703
0.000777363
0.000775019
0.000767761
0.000755483
0.000739101
0.000719525
0.000696919
0.000671096
0.000641597
0.000607853
0.0008671
0.000836655
0.000798822
0.000750651
0.000694817
0.000650374
0.000637408
0.000649432
0.000668344
0.000684284
0.000694778
0.000700693
0.00070399
0.00070727
0.000712713
0.000722272
0.000734402
0.0007473
0.000758659
0.00076676
0.000770294
0.000768879
0.000762631
0.000751705
0.000736957
0.000718812
0.000697422
0.0006726
0.000643847
0.000610566
0.000911651
0.000882544
0.000848123
0.000804427
0.000749604
0.000691465
0.000652025
0.000643673
0.000654736
0.00066976
0.000681637
0.000689224
0.000693866
0.000697922
0.000703571
0.000712687
0.000724502
0.000737446
0.000749157
0.00075791
0.000762363
0.000761981
0.000757152
0.000747954
0.000734768
0.000717966
0.00069766
0.000673671
0.00064547
0.000612438
0.000954514
0.000926351
0.000894294
0.000854019
0.000802762
0.000741548
0.000684192
0.00065186
0.000647739
0.000657554
0.000669075
0.000677788
0.000683671
0.000688575
0.000694574
0.000703447
0.000714874
0.000727546
0.000739416
0.000748771
0.000754268
0.000755216
0.000751843
0.000744282
0.000732621
0.000717116
0.000697779
0.000674468
0.000646623
0.00061361
0.000995557
0.000969272
0.000938341
0.000900094
0.000851949
0.000792289
0.000726975
0.000674612
0.000650654
0.000649906
0.000658205
0.000666884
0.000673631
0.000679333
0.000685769
0.000694563
0.000705702
0.000718144
0.000730118
0.00074001
0.00074647
0.000748721
0.000746763
0.000740776
0.000730637
0.000716419
0.000697999
0.00067521
0.000647514
0.000614265
0.0010358
0.00101011
0.000979675
0.000942684
0.000896921
0.000839996
0.000773134
0.000708365
0.000664961
0.000649305
0.000650705
0.000657452
0.000664279
0.000670556
0.000677428
0.000686255
0.000697191
0.000709433
0.000721471
0.000731808
0.000739159
0.000742663
0.000742085
0.000737623
0.000729009
0.000716078
0.00069859
0.000676262
0.000648475
0.000614679
0.00107247
0.00104721
0.00101754
0.000981831
0.000938115
0.000884075
0.000818842
0.000748676
0.000690289
0.000658035
0.000648958
0.000651313
0.000656984
0.000663356
0.000670575
0.000679511
0.000690297
0.000702337
0.000714366
0.00072502
0.000733086
0.000737715
0.000738484
0.000735446
0.000728205
0.000716556
0.000700088
0.000678198
0.000650174
0.000615418
0.00110717
0.00108243
0.00105358
0.0010192
0.000977571
0.000926561
0.000864525
0.000793943
0.000726691
0.000679499
0.00065765
0.000652889
0.000655794
0.000661624
0.000669072
0.000678191
0.000688839
0.000700552
0.000712311
0.00072293
0.000731315
0.000736614
0.000738417
0.00073656
0.000730571
0.000720082
0.000704481
0.000682852
0.000654093
0.000617647
0.00114353
0.00111973
0.00109213
0.00105954
0.00102053
0.000973338
0.00091613
0.000849287
0.000780078
0.000723093
0.000689142
0.000675796
0.000674549
0.000679267
0.00068699
0.000696335
0.000706512
0.000717249
0.000727794
0.000737228
0.000744689
0.000749483
0.000751201
0.000749544
0.000743967
0.00073395
0.000718658
0.000696675
0.000666556
0.000626942
0.00118958
0.00116767
0.00114252
0.00111345
0.00107958
0.00103957
0.000991712
0.000935377
0.000874153
0.000818511
0.000780297
0.000761872
0.000757807
0.000761927
0.000769927
0.000778812
0.00078703
0.000794567
0.000801051
0.000806074
0.000809255
0.000810311
0.000808915
0.000804662
0.000796856
0.000784917
0.000767932
0.000744009
0.000710763
0.000665311
0.00127579
0.00125899
0.00124145
0.00122297
0.00120296
0.00118016
0.00115282
0.00112006
0.00108262
0.00104654
0.00102069
0.00100807
0.00100595
0.00101054
0.00101756
0.00102375
0.00102721
0.00102865
0.00102811
0.00102553
0.00102127
0.00101545
0.00100798
0.000998383
0.000985006
0.000968037
0.000947691
0.000921163
0.000886151
0.000839648
0.00155618
0.00155376
0.00155541
0.00155674
0.00155685
0.001555
0.00155012
0.00154221
0.00152937
0.00151486
0.00150371
0.00149681
0.00149332
0.00149351
0.00149532
0.00149742
0.00149734
0.00149756
0.00149756
0.00149784
0.00149828
0.00149903
0.00149964
0.00149961
0.00149348
0.00148439
0.00147619
0.00146254
0.00144414
0.00142009
0.000197469
0.000205446
0.000203418
0.000198107
0.000190932
0.000182771
0.000174201
0.000165625
0.000157279
0.000149359
0.000141935
0.000135117
0.000128925
0.000123531
0.000119007
0.000115623
0.000113562
0.0001132
0.00011456
0.000117004
0.000119291
0.000120266
0.000119066
0.000115117
0.000108249
9.83641e-05
8.53683e-05
0.00036877
0.000355435
0.000374013
0.000743838
0.000840311
0.000813588
0.000758262
0.000697211
0.000639038
0.000587038
0.000541598
0.000502173
0.000468189
0.000438513
0.000412941
0.000390267
0.000371397
0.000355666
0.000344192
0.000336397
0.00033481
0.000337522
0.000344223
0.000352999
0.000361388
0.000363677
0.000354834
0.000335919
0.000307058
0.00027587
0.000300703
0.000381869
0.000383608
0.00116668
0.00134466
0.00135916
0.00130633
0.00122949
0.00114729
0.00106889
0.000997435
0.000933606
0.000877481
0.000827757
0.000784592
0.000746241
0.000714697
0.000689272
0.000671293
0.000659261
0.0006558
0.000654571
0.000656243
0.000660398
0.000665614
0.000661898
0.000643524
0.000606785
0.000553115
0.000490462
0.000432614
0.00043531
0.000471715
0.00140855
0.00165323
0.00171906
0.00169207
0.00162752
0.00154664
0.00146266
0.00138188
0.00130706
0.00123937
0.00117838
0.00112507
0.0010782
0.00104053
0.00101179
0.000993423
0.000982674
0.000979147
0.000973748
0.000967902
0.000963327
0.000959802
0.0009472
0.000916091
0.00086292
0.000788389
0.00069978
0.000599377
0.000534188
0.000524209
0.00152492
0.0017843
0.00190187
0.00192864
0.00189683
0.00183333
0.00175731
0.00167905
0.00160368
0.00153315
0.00146869
0.00141218
0.00136336
0.00132575
0.00129972
0.00128634
0.00128121
0.00127937
0.0012706
0.00125726
0.00124373
0.00123031
0.00120763
0.00116522
0.00109906
0.0010093
0.000902278
0.000776615
0.00066665
0.000606341
0.00158016
0.00184428
0.00199596
0.0020594
0.00206125
0.00202476
0.00196491
0.00189666
0.00182862
0.0017617
0.00170022
0.00164614
0.00160093
0.00156868
0.00155018
0.00154616
0.00154908
0.00154979
0.00153828
0.00151852
0.00149698
0.00147421
0.00144191
0.0013905
0.00131486
0.0012145
0.00109528
0.000954663
0.000817405
0.00071661
0.00158416
0.00183425
0.00200764
0.00210526
0.00214257
0.00213631
0.00210163
0.00205037
0.00199103
0.00193158
0.00187915
0.00183203
0.00179471
0.00177236
0.00176516
0.00177398
0.00178612
0.00178962
0.00177596
0.00175107
0.00172288
0.00169165
0.00165128
0.00159302
0.00151096
0.00140413
0.00127726
0.00112795
0.000974967
0.000844564
0.00152076
0.00175531
0.00194949
0.0020816
0.00215592
0.00218177
0.00217301
0.00214341
0.00210129
0.00205737
0.00201251
0.00197512
0.00194935
0.00194041
0.00194749
0.00197178
0.00199354
0.00200012
0.00198486
0.0019562
0.00192274
0.00188476
0.00183823
0.0017744
0.00168834
0.00157831
0.00144799
0.00129486
0.00113322
0.000980662
0.00138785
0.00161471
0.00183167
0.00200052
0.00211278
0.00217134
0.00219048
0.00218557
0.0021645
0.00213708
0.00210706
0.00208238
0.00206928
0.00207624
0.00209998
0.00214131
0.00217303
0.00218323
0.00216724
0.00213603
0.00209857
0.00205696
0.00200588
0.00193816
0.0018488
0.00173794
0.00160785
0.00145506
0.00128982
0.00111704
0.0012452
0.00143692
0.00166534
0.00187221
0.00202208
0.00211559
0.00216471
0.0021865
0.00218886
0.00218054
0.0021672
0.00215815
0.00216041
0.00218303
0.00222545
0.00228386
0.00232642
0.00233885
0.00232287
0.00229035
0.00225197
0.0022072
0.00215308
0.00208385
0.00199445
0.00188508
0.00175571
0.00160311
0.00143839
0.00124936
0.00111985
0.00125509
0.00146977
0.00169819
0.00188865
0.00202335
0.00210395
0.00215427
0.00218111
0.0021934
0.0021984
0.00220585
0.00222491
0.00226421
0.00232591
0.00240108
0.00245477
0.002472
0.00245701
0.00242408
0.00238518
0.00233779
0.00228205
0.00221269
0.00212696
0.00201806
0.00188921
0.00173906
0.00157542
0.00137622
0.00102925
0.00109588
0.00127313
0.00150159
0.00171799
0.00188903
0.00201156
0.0020933
0.00214603
0.00217993
0.00220371
0.00222885
0.00226541
0.00232202
0.00240334
0.00249453
0.00255902
0.00258256
0.00256985
0.00253814
0.00249988
0.00245192
0.00239528
0.00232816
0.00224333
0.00213671
0.00200947
0.0018638
0.0016992
0.00149614
0.000980398
0.000978907
0.00110027
0.00130466
0.00152849
0.00172641
0.00188494
0.00200305
0.00208723
0.00214301
0.00218643
0.00222998
0.00228424
0.00235881
0.00245941
0.0025663
0.00264107
0.00267079
0.00266357
0.00263436
0.00259748
0.00255151
0.00249604
0.00242892
0.00234515
0.00224162
0.00211761
0.00197877
0.00181016
0.00160258
0.00100071
0.000926985
0.000972904
0.00112981
0.00133976
0.00154997
0.00173551
0.00188472
0.00199981
0.0020854
0.00214925
0.00221168
0.00228382
0.00237653
0.00249538
0.00261681
0.00270234
0.00274341
0.00274012
0.00271426
0.00267956
0.00263589
0.00258209
0.0025162
0.00243406
0.0023338
0.00221698
0.00207943
0.00190697
0.00169477
0.00107651
0.000950297
0.000922114
0.00100682
0.00117524
0.00137702
0.0015756
0.00174766
0.00188922
0.00200286
0.00209448
0.00217622
0.00226595
0.00237682
0.00251262
0.0026477
0.00274416
0.00279408
0.00279926
0.002779
0.0027467
0.00270265
0.00265169
0.00259038
0.00251148
0.00241682
0.00230754
0.00216634
0.00198929
0.00177225
0.00121866
0.00105624
0.000959119
0.000959011
0.00106212
0.00122804
0.00141962
0.00160285
0.00176406
0.00190175
0.00201915
0.00212586
0.00223263
0.00236105
0.00251239
0.00266029
0.00276789
0.00282777
0.00284306
0.00283006
0.00280117
0.00276165
0.00271213
0.00265388
0.00257965
0.0024936
0.00238432
0.00223971
0.00205744
0.00183524
0.00142946
0.00124421
0.00109585
0.00101188
0.001023
0.00112824
0.00128606
0.00146349
0.00163408
0.00178935
0.00192862
0.00205827
0.00218604
0.00233056
0.00249605
0.00265599
0.0027749
0.0028458
0.00287243
0.00286868
0.00284503
0.00281183
0.00276739
0.00271081
0.00264485
0.00256296
0.00245023
0.00230091
0.00211249
0.00188454
0.00170607
0.00150727
0.00132473
0.00117355
0.00108957
0.00109954
0.00119931
0.00134605
0.00151089
0.00167418
0.00182915
0.00197794
0.00212505
0.00228674
0.00246514
0.00263633
0.00276666
0.0028496
0.00288845
0.00289572
0.00287991
0.00285468
0.00281966
0.0027681
0.0027073
0.00262322
0.0025067
0.00235158
0.00215591
0.0019214
0.00204013
0.00183398
0.00162843
0.00142975
0.00126465
0.00117341
0.00117823
0.00127119
0.0014086
0.00156625
0.00172805
0.00189017
0.0020531
0.00223227
0.00242165
0.00260305
0.00274473
0.00284066
0.00289251
0.00291256
0.002908
0.00289361
0.00286991
0.00282334
0.00276343
0.00267744
0.0025559
0.00239373
0.00218956
0.00194747
0.0024161
0.00220672
0.00198531
0.00175353
0.00152859
0.00134706
0.00125041
0.0012527
0.00134373
0.00147725
0.00163363
0.00180069
0.00197497
0.00216687
0.00236759
0.00255761
0.00271025
0.00281963
0.00288624
0.00292079
0.00293101
0.00292827
0.00291205
0.00287388
0.00281584
0.00272744
0.00259953
0.00242919
0.00221532
0.00196453
0.00281123
0.00260113
0.00236922
0.00211476
0.00184834
0.00159821
0.00140871
0.00131625
0.00132537
0.00141821
0.00155464
0.00171681
0.00189467
0.00209193
0.00229837
0.00249692
0.0026614
0.00278427
0.00286599
0.00291475
0.0029388
0.00294935
0.00294371
0.00291764
0.00286185
0.0027689
0.0026361
0.00245821
0.00223448
0.00197428
0.00319596
0.00298707
0.00274962
0.00248129
0.00218835
0.00189152
0.00162999
0.00144864
0.00137234
0.00139752
0.00149826
0.00164331
0.00181202
0.00200481
0.00220773
0.00240547
0.00257586
0.00271045
0.00280693
0.00287356
0.00291557
0.00293631
0.00294378
0.00293075
0.00288355
0.00279349
0.00265698
0.00247709
0.00224644
0.00197776
0.00353357
0.00332842
0.00309101
0.00281757
0.00251162
0.0021877
0.00187769
0.00162556
0.00146799
0.00141987
0.00146229
0.00157026
0.00171899
0.00189265
0.00207624
0.002261
0.00242854
0.00256887
0.00267755
0.00275917
0.00281862
0.00286
0.0028864
0.00289411
0.00286681
0.00278956
0.00265829
0.00247465
0.00224562
0.00197372
0.00378003
0.00358279
0.00335266
0.00308427
0.00277858
0.00244508
0.00210842
0.00180735
0.00158233
0.00146063
0.00143692
0.0014857
0.0015894
0.00172465
0.00187047
0.00202576
0.00217873
0.00231494
0.00243111
0.00252964
0.00261188
0.00267876
0.00273283
0.00277038
0.00277428
0.00272943
0.00261829
0.00244882
0.00221858
0.0019537
0.00388695
0.00370578
0.00349288
0.00324107
0.00294889
0.00262186
0.0022784
0.0019509
0.00167808
0.00149156
0.00139679
0.00137637
0.00141387
0.00149127
0.00159406
0.00171306
0.00183629
0.00195908
0.0020749
0.00218298
0.00228245
0.00237368
0.00245769
0.00252659
0.00256776
0.00256573
0.00250124
0.00236234
0.00216433
0.00191224
0.00382348
0.00367138
0.00348852
0.00326635
0.00300169
0.00269839
0.00237182
0.00204889
0.00176353
0.00154513
0.00140389
0.00133235
0.00131765
0.0013503
0.00141829
0.00150428
0.00159376
0.00168688
0.00177957
0.0018717
0.00196314
0.00205188
0.0021375
0.00221509
0.00227481
0.00230269
0.00228061
0.00219194
0.00202679
0.00181919
0.00361718
0.00351059
0.00337461
0.00320047
0.0029846
0.00273193
0.00245779
0.0021851
0.00194055
0.00174635
0.00161053
0.00153051
0.00150369
0.00151999
0.00156788
0.00162781
0.00168473
0.00174141
0.00179924
0.00185475
0.00190856
0.00196132
0.00201262
0.00205942
0.00209533
0.0021103
0.002089
0.00201513
0.00187328
0.00166966
0.00342304
0.00337199
0.00329226
0.00317836
0.00302774
0.00284751
0.0026521
0.00245785
0.00228236
0.00213723
0.00202926
0.00196484
0.00194122
0.00195036
0.00198211
0.00202201
0.00205685
0.00209252
0.00212625
0.0021568
0.00218452
0.00221006
0.00223242
0.00224853
0.00225361
0.00224134
0.00219945
0.00211147
0.00196159
0.00174002
0.00330266
0.00328387
0.00326186
0.00321418
0.00313771
0.00303542
0.00291448
0.00278935
0.00267042
0.00256562
0.00248248
0.00242915
0.0024023
0.00239868
0.00241036
0.00243152
0.002452
0.00247693
0.00250204
0.00252799
0.00255407
0.00257967
0.00260309
0.00262105
0.00262936
0.00262494
0.00259823
0.00253583
0.00242744
0.00226277
0.00326136
0.00326407
0.00326651
0.0032477
0.00320945
0.00315705
0.00309169
0.00301769
0.00294207
0.00287216
0.00281534
0.00277092
0.00274045
0.0027251
0.00272055
0.00272879
0.002741
0.00275994
0.00278392
0.00281326
0.00284614
0.00288065
0.00291453
0.00294558
0.00297042
0.00299074
0.00299857
0.0029858
0.00295507
0.00290183
0.000228101
0.000235897
0.000231802
0.000225259
0.000216988
0.000207692
0.000197986
0.000188308
0.000178908
0.000169999
0.000161651
0.000153992
0.000147016
0.000140948
0.000135872
0.000132178
0.000130206
0.000130951
0.000134746
0.000140092
0.000144493
0.00014633
0.000144693
0.000139023
0.000128953
0.000114049
9.44243e-05
7.86167e-05
0.000367121
8.89997e-05
0.000960985
0.00110396
0.0011087
0.00104989
0.000972616
0.000895831
0.000826721
0.000765981
0.000712858
0.000666455
0.000624827
0.000587805
0.000553076
0.000522697
0.000495067
0.00047284
0.000456236
0.000453935
0.000464161
0.000485514
0.000510409
0.000531712
0.000537108
0.0005183
0.000475122
0.000414806
0.000349535
0.000297569
0.000385554
0.000383902
0.00152637
0.00179229
0.00185986
0.00182293
0.00173859
0.00163849
0.00153878
0.00144569
0.00136064
0.00128388
0.00121348
0.00114992
0.00109008
0.00103786
0.000991666
0.0009544
0.000926023
0.000916314
0.000918374
0.00093526
0.000959742
0.000984213
0.000983477
0.000943753
0.000869203
0.000759485
0.000633566
0.000511255
0.000480855
0.000542158
0.00192092
0.0022476
0.00235538
0.0023573
0.00229335
0.00219967
0.00209648
0.00199388
0.00189594
0.00180467
0.00171956
0.00164224
0.00157034
0.00150865
0.00145633
0.0014156
0.0013841
0.0013672
0.00135713
0.00136273
0.00137599
0.00139429
0.0013843
0.001332
0.00123109
0.00108624
0.000916313
0.000735551
0.000617467
0.000619615
0.00216389
0.00247798
0.00264681
0.00270046
0.00267079
0.00259786
0.00250612
0.00240838
0.00231065
0.0022165
0.00212776
0.00204727
0.00197354
0.00191283
0.00186462
0.00182891
0.00179887
0.00177401
0.0017502
0.00173935
0.00174269
0.00175154
0.00173512
0.00167255
0.00155661
0.00139053
0.00119147
0.000972073
0.000791714
0.000725956
0.00231418
0.00261431
0.00280749
0.00289809
0.00290868
0.00286575
0.00279366
0.00271042
0.002622
0.00253329
0.00244953
0.00237383
0.0023071
0.00225585
0.0022195
0.00219453
0.0021675
0.00213292
0.00209487
0.00206999
0.00206113
0.00206137
0.00203944
0.00197135
0.00184846
0.001672
0.00145674
0.00121294
0.000991199
0.000867274
0.00241605
0.00268214
0.00287487
0.00299051
0.00303659
0.00303012
0.00299016
0.00292233
0.00284641
0.00276845
0.00269757
0.00263295
0.00258045
0.00254604
0.00252733
0.00251716
0.00249233
0.00244666
0.00239474
0.00235705
0.00233805
0.00232957
0.00230289
0.00223506
0.00211021
0.00193143
0.00171019
0.00145571
0.00120623
0.00103348
0.00244261
0.0026612
0.00285369
0.00299328
0.00307453
0.00310402
0.00309558
0.00305614
0.00300251
0.00294383
0.0028832
0.00283396
0.00280156
0.00279024
0.00279367
0.00280099
0.00277634
0.00271948
0.00265498
0.00260628
0.00257876
0.00256219
0.0025312
0.00246468
0.00234588
0.00217055
0.00195281
0.0016928
0.00142839
0.00121353
0.00236831
0.00255468
0.0027542
0.00291923
0.00303675
0.0031039
0.00312889
0.00312168
0.00309379
0.00305677
0.00301694
0.0029872
0.00297754
0.00299346
0.00302305
0.00304883
0.00302299
0.00295581
0.00288103
0.00282385
0.00278901
0.00276478
0.00273002
0.0026655
0.00255613
0.00239076
0.00217536
0.00191694
0.00164665
0.00139964
0.00223261
0.00238797
0.00258803
0.00277926
0.00293532
0.0030417
0.00310286
0.00312855
0.00313036
0.00311905
0.00310432
0.00309966
0.00311551
0.00315974
0.00321972
0.00326272
0.00323567
0.00316023
0.00307823
0.0030144
0.00297393
0.00294246
0.00290459
0.00284295
0.0027424
0.00258678
0.00237836
0.002128
0.00185691
0.0015874
0.002084
0.00219393
0.00238156
0.00259111
0.00278087
0.00292707
0.0030266
0.00308725
0.0031202
0.00313735
0.00315101
0.00317502
0.00322016
0.00329447
0.0033855
0.00344383
0.0034183
0.0033374
0.00325065
0.00318342
0.00313796
0.00310069
0.00305998
0.00300156
0.00290491
0.00275971
0.00256263
0.00232483
0.00205626
0.0017764
0.00194609
0.00199003
0.00214957
0.00236652
0.00258471
0.00276879
0.00290773
0.00300536
0.00307112
0.00311905
0.0031628
0.00321748
0.00329292
0.00340168
0.00352215
0.00359423
0.00356997
0.0034875
0.00340065
0.00333373
0.00328501
0.0032434
0.00320228
0.00314213
0.00304872
0.00291301
0.00273144
0.00250567
0.00224025
0.00195414
0.0018354
0.001797
0.00191304
0.00212132
0.00235795
0.00257534
0.00275255
0.00288782
0.00298921
0.00306918
0.00314435
0.00323097
0.00333817
0.00348338
0.00363141
0.00371616
0.00369823
0.00362029
0.00353509
0.00346934
0.00341854
0.00337605
0.00333082
0.00326901
0.00317849
0.00305326
0.00288651
0.00266859
0.00240714
0.00211755
0.00178071
0.00165468
0.00170466
0.00187998
0.00211736
0.00235794
0.00256917
0.00274105
0.00287845
0.00299292
0.0031002
0.00321929
0.00335884
0.00354079
0.00371441
0.00381171
0.00380327
0.00373543
0.00365459
0.00359205
0.00354308
0.00349974
0.00344931
0.00338597
0.00329869
0.00318554
0.00302668
0.00281459
0.00255629
0.00226452
0.00180968
0.00161265
0.0015672
0.00167898
0.00188912
0.00213414
0.00236893
0.00257289
0.00274482
0.0028938
0.00303472
0.00318585
0.00335771
0.00357505
0.00377212
0.00388284
0.0038886
0.00383375
0.00376093
0.00370422
0.00365735
0.0036131
0.00356014
0.00349595
0.00341708
0.00330921
0.00315399
0.00294467
0.00268776
0.00239387
0.00192393
0.00168354
0.00155227
0.00156857
0.00171247
0.00193129
0.00216957
0.00239465
0.00259592
0.00277729
0.00295116
0.00313369
0.00333777
0.00358691
0.00380534
0.00393101
0.00395403
0.00391636
0.00385535
0.00380449
0.00375985
0.00371718
0.00366464
0.00360606
0.00353217
0.00342299
0.00326799
0.00305933
0.00280188
0.00250524
0.00214729
0.00188278
0.00168453
0.00159359
0.00163712
0.00178872
0.00199778
0.00222307
0.00244227
0.00265016
0.00285385
0.00306544
0.00330139
0.00357725
0.00381445
0.00395675
0.00400046
0.00398331
0.00393788
0.00389675
0.00385802
0.00381477
0.00376833
0.00371584
0.0036398
0.0035279
0.00337005
0.00315954
0.00289921
0.00259873
0.00248236
0.00220566
0.00196245
0.00178243
0.00170281
0.00174379
0.00188811
0.00208075
0.00229819
0.00252107
0.00274769
0.00298454
0.00325065
0.00354558
0.00379848
0.00395861
0.00402554
0.00403216
0.00400568
0.00397652
0.00394448
0.00391294
0.00387484
0.00382039
0.0037413
0.00362478
0.00346125
0.00324627
0.00298064
0.00267489
0.00290095
0.00262065
0.0023497
0.00210511
0.00192
0.00183371
0.0018604
0.00199303
0.0021811
0.00240026
0.00263747
0.0028954
0.00318198
0.00348768
0.00375303
0.00393096
0.00402224
0.00405519
0.00405044
0.00403553
0.00401555
0.00399583
0.00397028
0.00392173
0.00383858
0.00371542
0.0035432
0.00331981
0.00304693
0.0027345
0.00336198
0.00308195
0.00279414
0.00250706
0.00224453
0.00204567
0.00195012
0.00197131
0.00210545
0.00229705
0.00252904
0.00279601
0.00308839
0.00339634
0.00366518
0.00385947
0.00397369
0.00403465
0.00405376
0.00405252
0.00404599
0.00403776
0.00402115
0.00398263
0.00390624
0.00378435
0.00360868
0.00337861
0.00309779
0.00277798
0.00381819
0.0035397
0.00324221
0.0029292
0.00261639
0.00233486
0.00212959
0.00203915
0.00207231
0.00221544
0.00242474
0.00268448
0.00297172
0.00325455
0.003514
0.00371635
0.0038583
0.00394034
0.0039814
0.00399981
0.00401144
0.00402036
0.00401825
0.00399015
0.00392093
0.00380834
0.00364184
0.00341384
0.00312968
0.00280451
0.00422139
0.00394589
0.00364492
0.0033189
0.00297758
0.00264335
0.00235563
0.00216144
0.00209176
0.00214199
0.00229624
0.00250939
0.00276202
0.00302829
0.00327051
0.00347193
0.00363184
0.00373683
0.00380075
0.0038446
0.0038807
0.00391411
0.00393484
0.00392974
0.00387538
0.00376853
0.00361501
0.00340677
0.00313225
0.00280995
0.00452597
0.00425732
0.00395996
0.00363226
0.00327973
0.00291754
0.00257649
0.00230043
0.00213053
0.00208122
0.00214296
0.00228942
0.00249222
0.00271417
0.00292437
0.00311765
0.00328792
0.00340578
0.00349487
0.0035651
0.00363151
0.00369373
0.00374359
0.00376937
0.00374923
0.00366445
0.00352179
0.00332286
0.00307894
0.00277989
0.00469419
0.00443974
0.00415519
0.00383731
0.00348857
0.00311882
0.00275121
0.00242221
0.00217288
0.00202921
0.001991
0.00204681
0.00217839
0.0023581
0.00253776
0.00271869
0.00287775
0.00300262
0.00310584
0.00319612
0.0032862
0.00337028
0.00344486
0.00349937
0.0035153
0.00347137
0.0033564
0.00318417
0.0029503
0.00267915
0.00470604
0.00447768
0.0042189
0.003925
0.00359638
0.00323985
0.00287406
0.00252961
0.00224333
0.00204263
0.00193373
0.00191647
0.00198615
0.00211721
0.00227561
0.00243151
0.00256381
0.00267602
0.00277247
0.00286459
0.00295165
0.00303463
0.00311149
0.00317368
0.00320633
0.00319121
0.00311279
0.00296031
0.00276414
0.00253324
0.0045805
0.00439519
0.00418073
0.00393022
0.00364311
0.00332543
0.0029952
0.00267962
0.00241019
0.00220739
0.00207623
0.00203041
0.00206298
0.00215405
0.00228228
0.00240228
0.0024991
0.00258117
0.00265652
0.00272436
0.00278584
0.00284324
0.00289538
0.00293625
0.00295468
0.00293589
0.00286361
0.00272742
0.00252695
0.0023018
0.00439924
0.00427553