/*--------------------------------*- C++ -*----------------------------------*\
| =========                 |                                                 |
| \\      /  F ield         | OpenFOAM: The Open Source CFD Toolbox           |
|  \\    /   O peration     | Version:  5.0                                   |
|   \\  /    A nd           | Web:      www.OpenFOAM.org                      |
|    \\/     M anipulation  |                                                 |
\*---------------------------------------------------------------------------*/
FoamFile
{
    version     2.0;
    format      ascii;
    class       volScalarField;
    location    "1500/air";
    object      epsilon;
}
// * * * * * * * * * * * * * * * * * * * * * * * * * * * * * * * * * * * * * //

dimensions      [0 2 -3 0 0 0 0];

internalField   nonuniform List<scalar> 
243000
(
3.12638
3.89443
4.28882
4.52679
4.62156
4.60061
4.48613
4.30104
4.06542
3.79944
3.51564
3.2248
2.931
2.64673
2.38028
2.14663
1.95567
1.82089
1.73749
1.68582
1.63117
1.54086
1.39656
1.20147
0.980431
0.860486
0.75034
0.14947
0.117146
0.103674
1.60511
1.92143
2.00403
2.00181
1.9455
1.85365
1.74069
1.61724
1.49032
1.36497
1.24348
1.12809
1.01958
0.921396
0.835191
0.764386
0.710955
0.679521
0.6677
0.668818
0.670351
0.66003
0.627882
0.571231
0.495962
0.412415
0.327637
0.247849
0.181159
0.151329
1.99075
2.35058
2.47394
2.4842
2.42348
2.3173
2.18343
2.035
1.88076
1.72753
1.57843
1.43692
1.30451
1.18594
1.08349
1.00169
0.942906
0.912169
0.904828
0.911176
0.915864
0.904596
0.865339
0.794226
0.697398
0.584657
0.46807
0.350868
0.253792
0.190177
2.14442
2.54614
2.71642
2.76126
2.72175
2.62689
2.49545
2.34235
2.17826
2.01191
1.84791
1.69139
1.54482
1.41445
1.30347
1.21773
1.1599
1.13453
1.1337
1.14455
1.15006
1.13537
1.08813
1.00415
0.889306
0.753817
0.610995
0.464079
0.337876
0.248126
2.13106
2.5356
2.76963
2.87051
2.87034
2.80436
2.69183
2.54929
2.38921
2.22199
2.05402
1.89211
1.74
1.60552
1.49283
1.40919
1.35741
1.3407
1.34731
1.36181
1.36649
1.3468
1.29125
1.19605
1.0668
0.91372
0.75066
0.581113
0.428302
0.315528
2.01283
2.41372
2.69544
2.84959
2.89965
2.87337
2.79031
2.66924
2.52343
2.36491
2.2017
2.04229
1.89184
1.7597
1.65097
1.57439
1.53253
1.52664
1.54103
1.55847
1.56134
1.53582
1.47206
1.36719
1.22671
1.06068
0.882633
0.696476
0.521111
0.387633
1.81354
2.21759
2.53441
2.73728
2.83765
2.85651
2.81033
2.71583
2.59102
2.44883
2.2973
2.14662
2.00352
1.87901
1.77865
1.71306
1.68393
1.68997
1.71222
1.73214
1.73274
1.70122
1.62971
1.51663
1.36762
1.19242
1.00379
0.805988
0.614098
0.461737
1.56745
1.97449
2.31606
2.56009
2.70806
2.77181
2.7656
2.70541
2.60645
2.48241
2.34731
2.21027
2.079
1.96601
1.87755
1.8258
1.81123
1.8296
1.85955
1.88175
1.88004
1.84292
1.76448
1.64463
1.48928
1.30792
1.11243
0.907643
0.704028
0.535549
1.32593
1.72116
2.07006
2.34374
2.53183
2.63716
2.67013
2.64507
2.57572
2.47735
2.36106
2.2387
2.12254
2.02382
1.94977
1.91374
1.91462
1.94523
1.98261
2.00707
2.00338
1.96148
1.87727
1.75209
1.59231
1.40724
1.20841
0.998558
0.78707
0.607013
1.11481
1.48491
1.83242
2.11682
2.32949
2.46918
2.5381
2.54779
2.50934
2.43706
2.3424
2.23998
2.13899
2.05586
1.99769
1.97836
1.99467
2.03713
2.08156
2.10839
2.10339
2.05782
1.96922
1.84025
1.67783
1.49166
1.2904
1.07732
0.861195
0.674302
0.948216
1.26525
1.60452
1.89864
2.1274
2.28542
2.38345
2.42426
2.41613
2.37042
2.29876
2.21564
2.13232
2.06547
2.02371
2.02114
2.05235
2.10598
2.15707
2.18646
2.18102
2.13309
2.04168
1.91054
1.74763
1.56081
1.35834
1.14389
0.927211
0.736233
0.846251
1.07072
1.3855
1.68483
1.92964
2.10697
2.22287
2.28559
2.30396
2.28392
2.2351
2.1719
2.1062
2.05576
2.03021
2.04365
2.08875
2.15281
2.21009
2.24232
2.2374
2.1886
2.09608
1.96482
1.80206
1.61563
1.41298
1.19832
0.985261
0.792558
0.830315
0.922669
1.18198
1.47471
1.73289
1.93006
2.06557
2.14616
2.18142
2.18369
2.15643
2.11264
2.06433
2.02972
2.01958
2.04774
2.10511
2.17851
2.24191
2.27722
2.27384
2.22571
2.13426
2.00403
1.84235
1.65718
1.45519
1.24137
1.03494
0.842724
0.920465
0.857463
1.01369
1.27383
1.53664
1.75226
1.90869
2.0087
2.06091
2.07695
2.06772
2.04172
2.00981
1.99015
1.99409
2.03523
2.10357
2.18489
2.25371
2.29264
2.29179
2.24626
2.15702
2.02899
1.86962
1.68655
1.48617
1.27825
1.0778
0.886996
1.1182
0.922668
0.921779
1.10131
1.34644
1.5736
1.7505
1.87114
1.9416
1.97252
1.97504
1.96312
1.94569
1.93965
1.95586
2.008
2.08515
2.17315
2.24726
2.29047
2.29207
2.24936
2.16398
2.04029
1.88478
1.70485
1.50712
1.30923
1.11463
0.925673
1.42142
1.14257
0.966363
0.99905
1.18036
1.39956
1.59127
1.73233
1.8221
1.86912
1.88435
1.88126
1.87512
1.88059
1.90706
1.96802
2.05201
2.14522
2.22396
2.27183
2.27734
2.23883
2.1576
2.0386
1.88813
1.71306
1.52478
1.33533
1.14607
0.959103
1.7587
1.47084
1.17796
1.02376
1.07632
1.24626
1.43603
1.59292
1.70174
1.76574
1.79466
1.80153
1.80153
1.81543
1.84985
1.91729
2.00613
2.10313
2.18599
2.23861
2.24909
2.21612
2.1405
2.02717
1.88224
1.71448
1.53797
1.35669
1.17248
0.987476
2.13498
1.8542
1.51621
1.21523
1.08386
1.14587
1.29849
1.4573
1.58137
1.66208
1.70532
1.72304
1.73003
1.74716
1.78657
1.85798
1.94968
2.04906
2.13538
2.19277
2.20906
2.18246
2.11439
2.00762
1.86942
1.71359
1.54742
1.37367
1.19411
1.01095
2.54997
2.26106
1.91675
1.54477
1.24629
1.13899
1.20368
1.33625
1.46459
1.55896
1.61618
1.64525
1.66006
1.67977
1.71996
1.79251
1.88503
1.98538
2.07435
2.13635
2.15909
2.13978
2.08005
1.98145
1.85475
1.71059
1.55372
1.38673
1.21128
1.02967
3.00251
2.69963
2.35268
1.95517
1.55085
1.26681
1.18511
1.24869
1.35945
1.45916
1.52796
1.56807
1.59117
1.61465
1.65393
1.72377
1.81478
1.91463
2.00527
2.07158
2.10111
2.0898
2.03915
1.95233
1.83912
1.70596
1.55751
1.39646
1.2244
1.0438
3.48938
3.16789
2.8142
2.40438
1.94788
1.52737
1.27426
1.21906
1.27932
1.36843
1.44276
1.49211
1.5233
1.55128
1.5909
1.65581
1.74217
1.83979
1.93092
2.00087
2.03722
2.0345
1.99596
1.92371
1.82327
1.70043
1.55955
1.40354
1.23403
1.05372
4.00508
3.66279
3.29793
2.875
2.39079
1.88557
1.47744
1.27079
1.24111
1.2958
1.36459
1.41897
1.45698
1.48961
1.53046
1.59203
1.67343
1.76654
1.85653
1.92947
1.97325
1.98115
1.95475
1.89606
1.80786
1.69491
1.56083
1.40896
1.24103
1.0601
4.54439
4.19478
3.80821
3.36395
2.85553
2.29902
1.77519
1.41328
1.26138
1.25269
1.2997
1.35166
1.39365
1.4303
1.47283
1.53228
1.60964
1.6988
1.78735
1.86264
1.91293
1.93086
1.91588
1.86995
1.79378
1.6905
1.5628
1.41405
1.24655
1.06383
5.11799
4.74816
4.33355
3.8632
3.33012
2.73818
2.13594
1.63981
1.35033
1.25169
1.25683
1.29548
1.33646
1.37553
1.41963
1.47779
1.55193
1.63759
1.72458
1.80149
1.85752
1.88475
1.88059
1.84672
1.78237
1.68859
1.56726
1.42112
1.2525
1.06633
5.68231
5.2913
4.85556
4.36392
3.8089
3.1905
2.53694
1.93798
1.51422
1.30579
1.2484
1.26027
1.2932
1.33177
1.37695
1.43454
1.50619
1.58881
1.67408
1.75191
1.81234
1.84767
1.8538
1.83094
1.777
1.69253
1.57786
1.4338
1.26276
1.07052
6.25269
5.84357
5.38983
4.88086
4.30885
3.67134
2.9844
2.31177
1.76946
1.44105
1.30157
1.27078
1.28686
1.32171
1.36785
1.42621
1.49659
1.5766
1.65958
1.73681
1.79937
1.83967
1.85365
1.83975
1.7949
1.71814
1.6082
1.46391
1.28608
1.08252
6.89008
6.46921
6.00336
5.48309
4.90122
4.25438
3.54968
2.82906
2.19042
1.73982
1.50076
1.41153
1.40195
1.43122
1.4813
1.54406
1.61474
1.69178
1.76979
1.84151
1.89957
1.93756
1.9515
1.93877
1.89555
1.81946
1.70739
1.55476
1.36115
1.13233
7.75665
7.33591
6.87235
6.36184
5.80006
5.18047
4.49933
3.7765
3.08129
2.52527
2.18199
2.02611
1.99087
2.02222
2.08673
2.16097
2.23191
2.29891
2.35802
2.40487
2.43532
2.44621
2.43446
2.39662
2.32743
2.22391
2.08197
1.89269
1.6496
1.35286
9.56116
9.18731
8.8082
8.42075
8.01444
7.56784
7.05452
6.4701
5.84077
5.27051
4.88183
4.69576
4.66112
4.72214
4.82015
4.90915
4.96055
4.98342
4.97798
4.943
4.88375
4.80248
4.69848
4.5662
4.38519
4.16227
3.90469
3.58513
3.19122
2.71502
17.2869
17.2057
17.2607
17.3043
17.3071
17.2442
17.0812
16.8187
16.3994
15.9302
15.5725
15.3515
15.2386
15.2396
15.2924
15.3565
15.3546
15.3623
15.3635
15.3732
15.3882
15.4122
15.432
15.431
15.2425
14.9668
14.7199
14.3145
13.7812
13.1073
5.56154
7.2939
8.21502
8.76344
9.00804
9.00986
8.82199
8.49362
8.0615
7.56026
7.01216
6.44699
5.87976
5.34489
4.85963
4.45828
4.1565
3.98611
3.93664
3.93576
3.8588
3.61009
3.15963
2.5483
1.87317
1.23345
0.798043
0.151236
0.126476
0.111817
3.53483
4.15044
4.56314
4.80712
4.90493
4.87789
4.74907
4.54544
4.29003
4.00286
3.70013
3.39621
3.10329
2.8348
2.60419
2.42662
2.31418
2.28359
2.33646
2.4236
2.45941
2.3791
2.16375
1.83863
1.44552
1.04257
0.679331
0.354606
0.269407
0.195968
3.09895
3.53646
3.82494
3.99378
4.06311
4.04587
3.95244
3.79898
3.60138
3.37542
3.13486
2.89243
2.65887
2.44725
2.26938
2.14137
2.07238
2.07495
2.14875
2.25102
2.30949
2.26723
2.10778
1.84059
1.5083
1.15019
0.80929
0.499053
0.335205
0.264529
2.7993
3.16546
3.4192
3.57382
3.64858
3.65444
3.59509
3.48098
3.32441
3.13877
2.93637
2.72961
2.52841
2.34734
2.19851
2.09821
2.05433
2.07667
2.15817
2.25983
2.3197
2.28969
2.15147
1.91561
1.61326
1.27728
0.945244
0.630198
0.414811
0.291982
2.50717
2.8138
3.06118
3.22749
3.32461
3.36014
3.33599
3.25827
3.13778
2.98655
2.81615
2.63883
2.46453
2.30904
2.18451
2.10808
2.08622
2.12491
2.21119
2.30802
2.36183
2.33338
2.20633
1.9897
1.70848
1.39033
1.06849
0.753491
0.508226
0.345536
2.18552
2.45043
2.70312
2.89184
3.0186
3.08655
3.09699
3.05389
2.96701
2.84769
2.70727
2.55788
2.40926
2.27831
2.17748
2.12447
2.12444
2.17843
2.26835
2.3585
2.40357
2.37166
2.25047
2.04715
1.78346
1.48293
1.17378
0.864989
0.605229
0.415354
1.83762
2.07664
2.34139
2.5564
2.715
2.81535
2.85723
2.84662
2.79151
2.70287
2.59178
2.46976
2.34692
2.24027
2.16323
2.13399
2.1553
2.224
2.31692
2.39987
2.4353
2.39812
2.27924
2.08584
1.83758
1.55451
1.26049
0.963003
0.699217
0.492931
1.48184
1.70514
1.98441
2.22527
2.41448
2.54314
2.61008
2.62855
2.60515
2.54742
2.46541
2.37051
2.27342
2.19102
2.13771
2.13212
2.17422
2.25642
2.3518
2.42789
2.45372
2.41046
2.29187
2.10715
1.87291
1.60711
1.32937
1.04631
0.786925
0.572402
1.17756
1.37609
1.65077
1.91194
2.12424
2.27028
2.35819
2.40246
2.40796
2.38031
2.32865
2.26066
2.18873
2.13047
2.10048
2.11782
2.17955
2.27337
2.37052
2.44051
2.45784
2.40718
2.28864
2.11166
1.89197
1.64333
1.38236
1.11529
0.865875
0.650117
0.978917
1.13989
1.39138
1.64617
1.85892
2.01197
2.11423
2.18086
2.21141
2.21025
2.18391
2.14269
2.09479
2.05975
2.05237
2.09129
2.17092
2.27621
2.3747
2.43958
2.44811
2.39269
2.27477
2.10455
1.89748
1.66593
1.42165
1.17086
0.934553
0.72285
0.848129
0.965119
1.1874
1.43344
1.64234
1.78715
1.89424
1.97503
2.02459
2.04484
2.04083
2.02049
1.99422
1.98097
1.99434
2.05317
2.14846
2.26192
2.3611
2.42212
2.42477
2.36731
2.25141
2.08884
1.89338
1.67775
1.44944
1.21477
0.993153
0.788608
0.770427
0.836276
1.02316
1.25544
1.46208
1.60557
1.71155
1.79253
1.85202
1.88729
1.89948
1.89685
1.88968
1.8959
1.92781
2.00434
2.11274
2.23245
2.33198
2.38976
2.38867
2.33092
2.2197
2.06609
1.88276
1.6808
1.46787
1.24973
1.04266
0.847036
0.760288
0.754378
0.892129
1.09994
1.30268
1.45289
1.56245
1.64194
1.70031
1.74082
1.76381
1.7749
1.78364
1.8063
1.85438
1.94582
2.06437
2.18833
2.28804
2.34341
2.34085
2.28506
2.18129
2.03763
1.86674
1.67767
1.47933
1.27866
1.08461
0.89824
0.81889
0.736035
0.798511
0.963345
1.15633
1.31612
1.43581
1.51683
1.57281
1.61147
1.63806
1.65794
1.67854
1.71421
1.77571
1.87879
2.00444
2.1308
2.23043
2.28452
2.28262
2.23114
2.1361
2.00423
1.84625
1.67062
1.48785
1.30254
1.12013
0.942669
0.951717
0.81003
0.776228
0.875143
1.03247
1.19193
1.32234
1.40836
1.46365
1.50084
1.52702
1.5493
1.57702
1.62181
1.69342
1.80461
1.93435
2.06147
2.16068
2.21479
2.21562
2.1705
2.08548
1.96679
1.82249
1.66177
1.49428
1.32239
1.15015
0.980856
1.15676
0.982564
0.860765
0.850659
0.952473
1.08649
1.21733
1.31016
1.36817
1.40535
1.43122
1.45256
1.48187
1.53138
1.60928
1.72493
1.85597
1.98236
2.08095
2.1363
2.14185
2.10481
2.03107
1.92683
1.79735
1.65302
1.49926
1.33907
1.17547
1.0134
1.42523
1.24098
1.06467
0.942437
0.934001
1.01789
1.12527
1.22041
1.28289
1.3219
1.34818
1.3689
1.39623
1.4454
1.52546
1.64194
1.77172
1.89609
1.99404
2.05173
2.0637
2.03623
1.97519
1.88613
1.77427
1.64513
1.50353
1.3533
1.19684
1.04084
1.7574
1.56867
1.36913
1.16633
1.03159
1.00918
1.06589
1.14394
1.20732
1.2486
1.27604
1.29667
1.32244
1.36674
1.44478
1.55864
1.68493
1.8062
1.90359
1.96463
1.98453
1.96818
1.92135
1.84991
1.75461
1.63917
1.50796
1.36586
1.21496
1.06375
2.15146
1.95597
1.74507
1.5004
1.26221
1.10878
1.06734
1.09709
1.14655
1.1861
1.21414
1.235
1.25978
1.3
1.37154
1.47958
1.60056
1.71799
1.81511
1.8806
1.9099
1.90716
1.87638
1.82142
1.74065
1.63631
1.51364
1.37773
1.23067
1.08278
2.60614
2.40131
2.17851
1.91015
1.60683
1.33262
1.16363
1.1039
1.11278
1.13929
1.16416
1.1845
1.20879
1.24672
1.31341
1.41276
1.52718
1.64084
1.73852
1.81059
1.8514
1.86191
1.84565
1.80537
1.73513
1.63937
1.52291
1.39065
1.24516
1.09898
3.12438
2.9079
2.66893
2.3787
2.03316
1.66947
1.37138
1.19606
1.12727
1.11906
1.13209
1.14897
1.17284
1.21101
1.27659
1.3716
1.48233
1.59374
1.69237
1.76933
1.81929
1.84147
1.83883
1.80894
1.74812
1.65708
1.54144
1.40817
1.2606
1.11339
3.71884
3.48927
3.22934
2.91207
2.52939
2.10043
1.69317
1.39066
1.21721
1.14698
1.13164
1.13947
1.16314
1.20485
1.27522
1.37341
1.48645
1.59935
1.69976
1.77926
1.83539
1.8665
1.87387
1.85222
1.79638
1.70528
1.58248
1.43862
1.28201
1.12861
4.42198
4.17859
3.89379
3.54295
3.1199
2.63557
2.14028
1.717
1.42251
1.26375
1.19962
1.18789
1.21093
1.26242
1.34889
1.46247
1.58655
1.70535
1.80936
1.89165
1.95024
1.98323
1.99088
1.96662
1.90541
1.80501
1.66666
1.50179
1.3217
1.15153
5.30756
5.05042
4.73946
4.35337
3.88913
3.35451
2.78613
2.25523
1.83479
1.56672
1.43284
1.39086
1.41484
1.48967
1.61516
1.76698
1.91673
2.05198
2.16066
2.23852
2.28595
2.30121
2.28574
2.23555
2.14594
2.01387
1.83954
1.63304
1.40985
1.20071
6.54342
6.27867
5.94963
5.53992
5.05075
4.48811
3.87426
3.26257
2.72964
2.34987
2.13908
2.06902
2.11412
2.25262
2.47112
2.70846
2.90942
3.06434
3.16201
3.19992
3.18568
3.12431
3.02362
2.88566
2.70801
2.48824
2.22532
1.92877
1.61234
1.32125
8.54526
8.29784
7.99
7.61165
7.16918
6.66463
6.10294
5.51151
4.96089
4.55487
4.34734
4.33753
4.51773
4.85707
5.30952
5.72832
6.00325
6.13604
6.12422
5.97432
5.7193
5.39066
5.01425
4.6051
4.16743
3.70239
3.20641
2.68474
2.1488
1.65455
12.4171
12.267
12.0979
11.9104
11.7256
11.5415
11.3275
11.0831
10.8557
10.774
10.9264
11.3497
12.0328
12.9274
13.8869
14.6197
14.9514
14.9119
14.497
13.7677
12.814
11.7355
10.6013
9.4511
8.30453
7.17567
6.05874
4.94024
3.82317
2.78482
20.9769
21.0362
21.2112
21.4974
21.9765
22.6204
23.3049
23.9774
24.6143
25.4171
26.4914
27.8732
29.4885
31.2372
32.7949
33.8081
34.1316
33.7724
32.6961
31.04
28.962
26.6503
24.232
21.7652
19.281
16.8288
14.4113
11.971
9.50325
7.12213
35.9323
36.1874
37.0639
38.3277
40.0253
41.8722
43.534
45.0149
46.1986
47.5789
49.269
51.1808
53.0586
54.7887
55.9134
56.35
56.2297
55.4733
54.0582
52.1079
49.7661
47.2012
44.5125
41.705
38.7334
35.6134
32.3308
28.7945
24.9757
21.0355
42.7725
43.1237
44.7664
46.7783
48.5294
49.7514
50.5226
51.0717
51.6023
52.3545
53.4701
54.6213
55.4132
55.8227
55.3694
54.4618
53.6328
52.618
51.4887
50.2981
49.1461
48.0818
47.1378
46.3013
45.4534
44.4991
43.4149
42.1939
40.7724
39.0783
8.5737
11.0431
12.1575
12.8848
13.2237
13.2222
12.9529
12.4846
11.8671
11.1491
10.3606
9.54561
8.72062
7.94174
7.23508
6.6636
6.26824
6.17342
6.40724
6.75575
6.85726
6.50263
5.67072
4.48877
3.16686
1.92115
0.951751
0.652638
0.129291
0.50711
5.09537
5.79287
6.16583
6.42565
6.53662
6.50145
6.34199
6.08939
5.76978
5.40645
5.02024
4.62758
4.24567
3.88951
3.58432
3.35289
3.23294
3.29444
3.57248
3.92332
4.12116
4.03855
3.67599
3.10522
2.41353
1.67576
0.999349
0.50905
0.302237
0.236833
4.60135
5.04297
5.30368
5.45322
5.49535
5.43993
5.29975
5.09079
4.82929
4.53195
4.21558
3.89439
3.58351
3.29798
3.05878
2.88952
2.81772
2.90168
3.16494
3.49123
3.70046
3.68107
3.4363
3.00804
2.44261
1.81704
1.20629
0.679903
0.402289
0.285585
4.31155
4.64758
4.87907
5.01513
5.05823
5.01946
4.90647
4.73196
4.50839
4.24968
3.97083
3.68552
3.40825
3.15659
2.9512
2.81523
2.77209
2.86992
3.1149
3.40434
3.59919
3.59658
3.39898
3.02853
2.53827
1.97426
1.39929
0.863265
0.509172
0.326071
4.01368
4.26249
4.4855
4.63876
4.71
4.70653
4.62992
4.49205
4.30489
4.08135
3.83554
3.581
3.33332
3.1112
2.93584
2.83123
2.81769
2.93135
3.16179
3.42026
3.58108
3.57537
3.39339
3.06179
2.61986
2.10386
1.56402
1.035
0.634451
0.394186
3.66439
3.83314
4.05503
4.23629
4.34894
4.38868
4.35562
4.25828
4.10968
3.92275
3.71132
3.48911
3.27206
3.0812
2.93784
2.86727
2.88609
3.01775
3.23578
3.45913
3.58743
3.56531
3.38719
3.07989
2.67456
2.20031
1.69625
1.1879
0.766455
0.482791
3.27455
3.3728
3.58847
3.79766
3.95475
4.0409
4.05439
4.00058
3.89296
3.74493
3.57055
3.3834
3.19971
3.04293
2.93487
2.90208
2.95564
3.10608
3.31283
3.5023
3.59581
3.55279
3.37219
3.07764
2.7031
2.26646
1.79822
1.31748
0.895615
0.58335
2.84741
2.89295
3.10121
3.3344
3.53255
3.66412
3.72225
3.71369
3.64878
3.54151
3.40616
3.25636
3.10944
2.98941
2.91988
2.92796
3.01782
3.18608
3.3816
3.53889
3.59847
3.53277
3.34663
3.06191
2.7087
2.30674
1.87351
1.42378
1.01444
0.687684
2.38801
2.40532
2.61467
2.86652
3.09779
3.269
3.36841
3.402
3.38007
3.31416
3.21905
3.10819
3.0002
2.92001
2.89135
2.94235
3.0683
3.25199
3.43557
3.56266
3.59034
3.50332
3.31082
3.03444
2.69935
2.32664
1.92601
1.50847
1.11886
0.788069
1.95863
1.96056
2.1593
2.41965
2.67214
2.87291
3.00632
3.07669
3.09418
3.06862
3.0135
2.94218
2.87428
2.83592
2.84963
2.94427
3.10424
3.2999
3.47035
3.57079
3.56867
3.46373
3.26586
2.99759
2.67963
2.3299
1.96002
1.57446
1.20755
0.879871
1.61676
1.59043
1.7678
2.02441
2.28349
2.4979
2.65257
2.75167
2.80172
2.81252
2.79551
2.76289
2.73536
2.7394
2.79536
2.9332
3.12321
3.3266
3.48391
3.5595
3.53258
3.41308
3.21298
2.95366
2.65211
2.32352
1.98074
1.62673
1.28079
0.961401
1.35988
1.29501
1.44
1.6815
1.93842
2.15884
2.32611
2.4421
2.51527
2.55514
2.57166
2.57568
2.58744
2.63176
2.73006
2.90874
3.12643
3.33381
3.47669
3.52847
3.48172
3.35215
3.15366
2.90454
2.61931
2.31162
1.99476
1.66725
1.33998
1.03158
1.18471
1.07522
1.17628
1.38997
1.63593
1.8569
2.03131
2.15863
2.24737
2.30665
2.34985
2.3858
2.43351
2.51589
2.65478
2.87039
3.10782
3.31478
3.44448
3.47701
3.41654
3.28211
3.08951
2.85213
2.58394
2.29812
2.00456
1.6965
1.38614
1.08979
1.09704
0.940196
0.982555
1.15201
1.37567
1.59108
1.76907
1.90377
2.0033
2.07696
2.13751
2.19878
2.27748
2.39462
2.5707
2.81791
3.06906
3.27225
3.38987
3.40701
3.33861
3.20455
3.0215
2.79876
2.5494
2.2856
2.00848
1.71641
1.42064
1.13632
1.10673
0.916962
0.877934
0.980864
1.16376
1.36298
1.53931
1.67825
1.785
1.8688
1.94245
2.02019
2.12316
2.27071
2.47908
2.75155
3.01062
3.20812
3.31506
3.32157
3.25072
3.12212
2.95223
2.74788
2.52082
2.27343
2.00777
1.72867
1.44503
1.17206
1.19814
0.993872
0.886879
0.900973
1.01719
1.181
1.34476
1.48292
1.59352
1.68398
1.76692
1.85578
1.97451
2.1473
2.3817
2.67266
2.93493
3.12587
3.22418
3.22544
3.15741
3.03936
2.88707
2.70654
2.4977
2.26165
2.00494
1.73513
1.46101
1.19831
1.38378
1.17595
1.02321
0.9438
0.964642
1.06448
1.19501
1.32161
1.43062
1.52396
1.6128
1.70973
1.83684
2.02795
2.28164
2.58472
2.84698
3.03169
3.12451
3.12628
3.06672
2.96496
2.83823
2.6766
2.47945
2.25178
2.00113
1.73733
1.4703
1.21646
1.67772
1.46239
1.28058
1.12875
1.0407
1.03934
1.10983
1.20397
1.30082
1.39136
1.48241
1.58449
1.71888
1.91873
2.18498
2.49497
2.756
2.9364
3.02769
3.03714
2.99408
2.91762
2.80852
2.65778
2.46823
2.24535
1.99764
1.73685
1.4745
1.22796
2.08085
1.85063
1.64381
1.44084
1.25927
1.14191
1.10963
1.14742
1.21366
1.29183
1.38011
1.4844
1.6267
1.83065
2.10398
2.41749
2.67882
2.85959
2.95414
2.98271
2.96229
2.90143
2.7994
2.65348
2.46622
2.24398
1.99611
1.73585
1.47546
1.23446
2.59577
2.34141
2.10423
1.85844
1.60575
1.38047
1.23138
1.17429
1.18572
1.23685
1.31515
1.42003
1.57193
1.78381
2.0642
2.37984
2.64748
2.83781
2.9478
2.99023
2.98605
2.93723
2.84184
2.69326
2.49427
2.26069
2.00365
1.73791
1.47587
1.23789
3.23313
2.94492
2.66811
2.37666
2.06441
1.75052
1.4862
1.31678
1.24578
1.24793
1.30568
1.40897
1.57094
1.80595
2.10857
2.43997
2.723
2.92479
3.04661
3.10088
3.10524
3.05783
2.9575
2.79964
2.58282
2.31884
2.03529
1.75212
1.48082
1.24116
4.02015
3.68975
3.36416
3.02011
2.64963
2.26145
1.89689
1.61303
1.44161
1.3771
1.40109
1.50224
1.68753
1.96071
2.31196
2.68423
2.99413
3.21284
3.34544
3.40304
3.39986
3.33336
3.20542
3.01473
2.76191
2.45614
2.12338
1.79839
1.50179
1.25047
5.01819
4.64009
4.26069
3.86029
3.43228
2.9802
2.53451
2.1494
1.87466
1.733
1.71606
1.82141
2.05032
2.39953
2.85133
3.30686
3.66263
3.90678
4.04279
4.08283
4.03696
3.90941
3.70892
3.44077
3.11036
2.73006
2.32156
1.92549
1.56881
1.28209
6.35994
5.93644
5.50957
5.06273
4.59121
4.09645
3.6004
3.14784
2.79482
2.59114
2.551
2.69326
3.02164
3.52239
4.17483
4.78191
5.21555
5.48388
5.5942
5.55786
5.38863
5.10812
4.74038
4.30401
3.8128
3.28335
2.73877
2.21508
1.75123
1.38355
8.34022
7.89576
7.45453
7.00296
6.53795
6.06138
5.59026
5.15929
4.82267
4.65069
4.68635
4.98532
5.55407
6.36898
7.38386
8.24096
8.77651
9.03294
9.02495
8.76241
8.28966
7.65914
6.92556
6.13406
5.3112
4.4794
3.66116
2.88908
2.20253
1.65657
11.6447
11.2507
10.8767
10.5221
10.1862
9.87692
9.61253
9.41863
9.33605
9.45372
9.84404
10.5856
11.6769
13.0695
14.646
15.8272
16.438
16.5756
16.2385
15.4788
14.3866
13.0666
11.6245
10.1438
8.67157
7.24046
5.87131
4.58333
3.41558
2.45873
17.8265
17.6098
17.4223
17.3426
17.3558
17.491
17.7569
18.1559
18.7038
19.4995
20.6305
22.1754
24.0928
26.2747
28.4464
29.8422
30.3932
30.2254
29.3318
27.828
25.8555
23.576
21.1261
18.6152
16.1128
13.6696
11.3267
9.06139
6.91047
5.02894
29.0949
29.2123
29.5199
29.9587
30.5983
31.4531
32.499
33.6796
34.988
36.5665
38.5166
40.854
43.4626
46.0649
48.1847
49.0525
49.1068
48.3739
46.944
44.9207
42.4619
39.7152
36.7605
33.6319
30.3394
26.9156
23.4801
19.9552
16.3682
12.9411
43.771
43.9277
45.0049
46.5316
48.2238
49.8734
51.3235
52.6666
54.023
55.6381
57.6304
59.8183
61.9238
63.284
63.5619
62.2795
60.9842
59.3839
57.7025
55.8931
54.1093
52.4184
50.7941
49.0987
47.1667
44.8864
41.9853
38.615
34.7988
30.7073
47.2524
48.0093
49.7891
51.8992
53.7858
55.1733
56.0937
56.7667
57.4452
58.341
59.4803
60.5604
61.179
61.047
59.6316
56.9936
54.9408
52.9771
51.3741
50.0678
49.1702
48.6577
48.4722
48.4712
48.4618
48.2786
47.8551
47.16
46.1603
44.9317
11.881
15.0683
16.3357
17.0557
17.4055
17.369
17.0073
16.3976
15.5977
14.6659
13.6336
12.5574
11.451
10.3961
9.42956
8.66408
8.2219
8.50625
9.61995
10.8888
11.4272
10.9297
9.51352
7.50389
5.24788
3.09466
1.42154
0.641641
0.129113
0.515452
6.84424
7.64683
8.00288
8.19981
8.28068
8.21551
8.00908
7.69129
7.2925
6.83717
6.34937
5.84584
5.35298
4.88516
4.48484
4.18228
4.07322
4.37425
5.16129
6.02216
6.46433
6.33824
5.74994
4.85902
3.79894
2.63212
1.5132
0.635504
0.27946
0.244149
6.25465
6.68263
6.90577
7.01578
7.02409
6.92991
6.74022
6.46866
6.1334
5.75111
5.34088
4.91689
4.50329
4.1182
3.79659
3.56872
3.50573
3.78702
4.45556
5.18612
5.60386
5.57225
5.17489
4.54024
3.71564
2.75522
1.78317
0.897926
0.428721
0.270033
5.97714
6.24098
6.44017
6.5552
6.57475
6.50097
6.33932
6.10147
5.8024
5.45634
5.08088
4.68953
4.30772
3.95739
3.67355
3.48548
3.45856
3.7456
4.34138
4.96354
5.33982
5.32884
5.01027
4.46628
3.75114
2.9095
2.01982
1.15063
0.578156
0.324936
5.6809
5.83451
6.03256
6.18032
6.24189
6.21292
6.09139
5.89062
5.62625
5.31268
4.9667
4.60429
4.2507
3.92955
3.68064
3.53333
3.55191
3.85942
4.4066
4.95033
5.24929
5.22403
4.93101
4.43143
3.78891
3.03044
2.21017
1.3775
0.74393
0.409245
5.30121
5.37315
5.57203
5.76328
5.88138
5.90797
5.83747
5.6809
5.45673
5.18025
4.86925
4.53878
4.2165
3.93127
3.71978
3.62092
3.69509
4.03185
4.53711
4.99728
5.22174
5.16649
4.87127
4.39644
3.80028
3.11034
2.35532
1.57039
0.917051
0.517545
4.85219
4.85929
5.05298
5.28309
5.45932
5.54396
5.53154
5.42638
5.24897
5.01616
4.74733
4.45428
4.16928
3.92568
3.76078
3.7202
3.85914
4.2276
4.69336
5.0701
5.22254
5.12315
4.81398
4.35264
3.78874
3.15449
2.46005
1.72837
1.08355
0.639371
4.35382
4.29518
4.48468
4.7459
4.97479
5.11711
5.16405
5.1158
4.99075
4.80738
4.58721
4.3398
4.09761
3.902
3.794
3.82165
4.03136
4.42827
4.85298
5.14913
5.22823
5.0798
4.75312
4.29937
3.7614
3.16927
2.53061
1.85427
1.23483
0.765484
3.8178
3.70032
3.88496
4.16902
4.44196
4.63757
4.74186
4.75167
4.68288
4.55381
4.38791
4.19232
4.00093
3.86106
3.81777
3.92225
4.20406
4.62164
5.00108
5.21916
5.22512
5.03095
4.68709
4.23854
3.72229
3.16377
2.5749
1.95321
1.36632
0.886928
3.24608
3.0994
3.27761
3.57568
3.88358
4.12406
4.28139
4.34479
4.33355
4.26157
4.15356
4.01429
3.88138
3.80496
3.83311
4.02064
4.3708
4.79755
5.12657
5.27033
5.20751
4.97396
4.61627
4.17294
3.67642
3.14934
2.60489
2.03317
1.47613
0.998074
2.73501
2.56055
2.71746
3.01153
3.33202
3.60278
3.80276
3.91425
3.95522
3.9404
3.89118
3.81031
3.74304
3.73663
3.84177
4.11538
4.52478
4.94679
5.22087
5.2946
5.17355
4.9084
4.5422
4.10604
3.62893
3.13279
2.62511
2.09085
1.56295
1.09522
2.30557
2.09521
2.21917
2.49475
2.81461
3.10221
3.33064
3.48048
3.56567
3.60218
3.60922
3.58834
3.59195
3.65817
3.84547
4.20385
4.65843
5.06114
5.27762
5.28746
5.12182
4.83548
4.46748
4.04181
3.58576
3.11544
2.63033
2.12713
1.62798
1.17631
1.96196
1.71281
1.79388
2.03729
2.34335
2.63593
2.88108
3.06105
3.18284
3.26174
3.31746
3.35683
3.43137
3.57424
3.84392
4.28218
4.76402
5.13428
5.29389
5.25028
5.0535
4.75837
4.39617
3.98529
3.55118
3.09498
2.62354
2.14496
1.67231
1.23999
1.70246
1.42378
1.45334
1.65012
1.92796
2.21319
2.46528
2.66603
2.81782
2.93273
3.02849
3.12348
3.26698
3.48999
3.84
4.34628
4.83549
5.16343
5.27173
5.18775
4.97417
4.68274
4.33433
3.9452
3.52216
3.07046
2.60838
2.14566
1.69777
1.28643
1.54705
1.24814
1.21529
1.34925
1.58138
1.84444
2.09291
2.30473
2.47829
2.62262
2.75374
2.89698
3.10606
3.40922
3.83467
4.39301
4.87033
5.15821
5.2191
5.1096
4.89414
4.61794
4.29325
3.91768
3.49453
3.04345
2.5867
2.13629
1.70714
1.31702
1.51339
1.21797
1.10641
1.15852
1.3234
1.54458
1.77522
1.98674
2.17353
2.34041
2.50255
2.68603
2.95655
3.3367
3.82988
4.42267
4.87772
5.12048
5.14943
5.0325
4.83106
4.58054
4.27195
3.89718
3.46965
3.01555
2.5605
2.119
1.70372
1.33377
1.59061
1.30365
1.14171
1.1041
1.18175
1.33512
1.52704
1.72416
1.91282
2.09424
2.28254
2.50341
2.82732
3.27924
3.83101
4.44228
4.86884
5.07392
5.08818
4.98118
4.80816
4.57018
4.26357
3.88458
3.44916
2.98879
2.53205
2.09619
1.69255
1.339
1.79085
1.51393
1.31915
1.20376
1.17377
1.24238
1.36893
1.53146
1.70789
1.89354
2.10269
2.36013
2.73122
3.24821
3.85263
4.46983
4.87143
5.05249
5.07489
5.00684
4.84906
4.6134
4.28438
3.88361
3.43617
2.96609
2.5043
2.07073
1.67597
1.33597
2.15469
1.86427
1.63652
1.45652
1.33256
1.28696
1.3242
1.42928
1.57318
1.7513
1.97617
2.27242
2.69018
3.25468
3.91726
4.54088
4.9301
5.11601
5.17967
5.12479
4.96164
4.72562
4.36581
3.92072
3.43816
2.95219
2.48132
2.04617
1.65696
1.32844
2.682
2.35958
2.09111
1.85292
1.64564
1.49224
1.4189
1.42995
1.53024
1.68982
1.92589
2.25223
2.73707
3.36293
4.07928
4.725
5.14213
5.36202
5.43685
5.36667
5.21101
4.94094
4.53697
4.03196
3.4888
2.95931
2.46914
2.02729
1.63927
1.31902
3.38418
3.01414
2.6944
2.39742
2.11683
1.86776
1.68472
1.59713
1.61959
1.74748
1.99529
2.37125
2.93465
3.65338
4.46281
5.16281
5.62782
5.87463
5.93072
5.84249
5.66584
5.32383
4.84509
4.2652
3.6396
3.03151
2.48865
2.02166
1.62816
1.31155
4.29657
3.86731
3.48797
3.1303
2.78368
2.45476
2.17525
1.98943
1.93066
2.01679
2.27837
2.72411
3.40707
4.27334
5.24168
6.04711
6.57337
6.82917
6.84677
6.74732
6.46708
5.99551
5.38572
4.69002
3.95672
3.24568
2.60184
2.06711
1.63971
1.31297
5.50049
5.00841
4.56953
4.15643
3.75617
3.36892
3.01984
2.75786
2.63567
2.69208
2.992
3.55348
4.41884
5.52543
6.75555
7.72374
8.32883
8.55587
8.5589
8.36073
7.87614
7.17996
6.35047
5.45772
4.55492
3.69075
2.90915
2.25242
1.73443
1.35792
7.17079
6.62884
6.14851
5.70409
5.28137
4.87724
4.51192
4.23486
4.10999
4.20396
4.61516
5.38566
6.55062
8.01751
9.65647
10.8325
11.5248
11.7191
11.6611
11.1894
10.3637
9.29734
8.1088
6.89011
5.69835
4.5791
3.56908
2.70557
2.02236
1.5293
9.68496
9.13538
8.6608
8.24281
7.86595
7.52996
7.25535
7.09393
7.11215
7.40978
8.09456
9.24119
10.8724
12.8449
15.0353
16.3908
17.1397
17.3067
16.9533
16.061
14.7218
13.0955
11.3556
9.62927
7.96436
6.41289
5.00125
3.76445
2.75073
1.99848
13.8072
13.3577
12.9605
12.6696
12.4566
12.3384
12.3322
12.5039
12.9164
13.6677
14.8634
16.5958
18.8645
21.4396
24.176
25.5217
26.1406
26.0589
25.2732
23.8688
21.9393
19.6468
17.2174
14.8206
12.4796
10.2665
8.19621
6.29826
4.64098
3.34344
20.7197
20.5155
20.4248
20.3961
20.4847
20.7773
21.2568
21.9718
22.9722
24.3564
26.2029
28.6008
31.5137
34.5408
37.4177
37.8797
37.5481
36.5898
35.3004
33.6132
31.6031
29.3201
26.7204
23.8558
20.8724
17.9362
15.0398
12.1886
9.48134
7.17776
31.3437
31.324
31.6833
32.2804
33.0153
33.8255
34.7978
35.9853
37.4373
39.2629
41.512
44.224
47.2915
49.9436
51.4051
49.3023
47.5853
45.7269
44.13
42.5155
40.9366
39.3326
37.6218
35.6822
33.3953
30.5922
27.3832
23.8752
20.1665
16.698
42.4896
42.8012
43.8183
45.1501
46.5403
47.8716
49.104
50.3293
51.6761
53.2509
55.1043
57.1508
59.3039
60.0629
59.1803
54.5143
51.5042
48.939
47.1787
45.9005
45.1343
44.74
44.5486
44.3179
43.7809
42.7902
41.1887
39.0016
36.2727
33.2052
43.6264
44.7526
46.5417
48.514
50.2952
51.7005
52.7488
53.6041
54.4736
55.5192
56.7157
57.7831
58.4056
57.5242
54.5611
48.6558
45.118
42.3716
40.6693
39.6434
39.3703
39.7862
40.6747
41.7605
42.7834
43.5519
43.9473
43.9175
43.533
42.9607
15.8139
19.6998
21.047
21.6271
21.8718
21.7223
21.2112
20.4151
19.3931
18.2072
16.8822
15.4841
14.0232
12.614
11.3125
10.3129
9.92348
11.2229
14.3328
17.3464
18.4955
17.617
15.2473
12.0915
8.60582
5.19196
2.3936
0.675219
0.126577
0.475829
8.86715
9.70745
10.0063
10.0965
10.11
9.99287
9.73053
9.34308
8.86037
8.30502
7.70428
7.06985
6.4402
5.82465
5.29646
4.88811
4.81831
5.63078
7.40909
9.08091
9.77622
9.48187
8.53785
7.25628
5.7813
4.15256
2.44145
0.894015
0.241811
0.238051
8.10362
8.45503
8.57972
8.61192
8.56334
8.4258
8.19303
7.86727