/*--------------------------------*- C++ -*----------------------------------*\
| =========                 |                                                 |
| \\      /  F ield         | OpenFOAM: The Open Source CFD Toolbox           |
|  \\    /   O peration     | Version:  5.0                                   |
|   \\  /    A nd           | Web:      www.OpenFOAM.org                      |
|    \\/     M anipulation  |                                                 |
\*---------------------------------------------------------------------------*/
FoamFile
{
    version     2.0;
    format      ascii;
    class       volScalarField;
    location    "1500/air";
    object      k;
}
// * * * * * * * * * * * * * * * * * * * * * * * * * * * * * * * * * * * * * //

dimensions      [0 2 -2 0 0 0 0];

internalField   nonuniform List<scalar> 
243000
(
0.0695595
0.0785094
0.081675
0.0826611
0.0819026
0.0798885
0.0769639
0.0734295
0.0695202
0.0654553
0.0613542
0.0573109
0.0533412
0.0495626
0.0460497
0.042983
0.0405036
0.038829
0.0379374
0.0375762
0.0372385
0.0363986
0.0346801
0.0319709
0.0284964
0.0264165
0.0241916
0.0226577
0.0191282
0.0181945
0.103723
0.11693
0.120253
0.12016
0.117893
0.11415
0.109461
0.10422
0.0986915
0.0930743
0.0874641
0.0819635
0.0766174
0.0716136
0.0670712
0.063221
0.0602348
0.0584407
0.0577566
0.0578188
0.0579072
0.0573133
0.0554399
0.0520564
0.0473789
0.0416867
0.0358189
0.0298294
0.0242092
0.0214754
0.119741
0.133757
0.13839
0.138767
0.136493
0.132472
0.127316
0.121476
0.115254
0.108903
0.10254
0.0963129
0.0902985
0.0847371
0.0797796
0.0757066
0.0727084
0.0711126
0.0707247
0.0710521
0.0712956
0.0707119
0.0686547
0.0648438
0.0594632
0.0528594
0.0455771
0.0376148
0.0303085
0.0250094
0.12584
0.141088
0.147299
0.148909
0.147479
0.144027
0.139178
0.133421
0.127111
0.12055
0.113904
0.107374
0.101073
0.0952994
0.0902416
0.0862326
0.0834725
0.0822421
0.0821948
0.082715
0.0829799
0.0822743
0.0799799
0.0758144
0.0699215
0.0626285
0.0544463
0.0453253
0.0366818
0.0298617
0.125328
0.14071
0.149227
0.152819
0.152805
0.150448
0.146391
0.141172
0.135194
0.128805
0.122225
0.115711
0.109418
0.1037
0.0987824
0.0950489
0.0926963
0.0919237
0.0922178
0.092874
0.0930858
0.0921919
0.0896433
0.0851858
0.0789369
0.0711964
0.0624545
0.0526563
0.0429656
0.0350497
0.12066
0.136176
0.14656
0.152084
0.15385
0.152912
0.149945
0.14557
0.140214
0.134274
0.128018
0.121757
0.115696
0.110238
0.105641
0.102338
0.100505
0.100236
0.100856
0.10161
0.101734
0.100625
0.097824
0.0931259
0.0866373
0.0786365
0.0695731
0.0594115
0.0489669
0.0402031
0.112573
0.128708
0.140674
0.148071
0.151657
0.15232
0.150666
0.147263
0.142711
0.137435
0.131701
0.125872
0.120208
0.115167
0.11102
0.108262
0.107018
0.107261
0.108191
0.109023
0.109047
0.107722
0.104686
0.0997909
0.0931476
0.0850166
0.0757998
0.0654848
0.0546293
0.0451742
0.102157
0.119133
0.132485
0.14162
0.147013
0.149301
0.14907
0.146892
0.143281
0.138693
0.133609
0.12835
0.12321
0.118696
0.115098
0.11296
0.112344
0.113089
0.114309
0.115211
0.115139
0.113621
0.110377
0.105326
0.0985895
0.0904182
0.0811718
0.070879
0.0598383
0.0498668
0.0913799
0.108719
0.12294
0.133535
0.140573
0.144434
0.145626
0.144706
0.142158
0.138509
0.134133
0.129452
0.124927
0.121013
0.118032
0.116558
0.116578
0.117803
0.119296
0.120268
0.120119
0.118439
0.115029
0.109862
0.103082
0.0949365
0.0857732
0.0755338
0.0644535
0.0542079
0.081408
0.0985353
0.113348
0.124776
0.132989
0.138242
0.140792
0.141143
0.139711
0.137008
0.133431
0.129505
0.125574
0.122289
0.119958
0.119167
0.119803
0.121482
0.12323
0.124279
0.12408
0.122283
0.118751
0.113513
0.106737
0.0986929
0.0896069
0.0794525
0.0684369
0.0581413
0.0730796
0.0885701
0.103752
0.116055
0.125187
0.1313
0.135021
0.13655
0.136236
0.134505
0.131773
0.128569
0.125316
0.122672
0.120998
0.120878
0.122101
0.124201
0.126189
0.127325
0.127111
0.125243
0.121642
0.116382
0.109673
0.101716
0.0927216
0.0826891
0.0718902
0.0616476
0.0677281
0.079248
0.0940917
0.107179
0.11731
0.124379
0.128891
0.131298
0.131993
0.131218
0.129334
0.126876
0.124294
0.122289
0.121259
0.121773
0.123538
0.126033
0.128245
0.129481
0.129288
0.127403
0.12379
0.118572
0.111935
0.10408
0.095188
0.0852889
0.0748583
0.0647513
0.0668457
0.0717576
0.0846438
0.0980821
0.109203
0.117322
0.122741
0.125907
0.127276
0.127357
0.126286
0.124561
0.122645
0.121257
0.120836
0.121936
0.124181
0.127031
0.12947
0.130817
0.130684
0.128834
0.125284
0.120139
0.113593
0.105853
0.0970709
0.0873157
0.0773512
0.0674536
0.0715603
0.0683056
0.0764034
0.088969
0.100804
0.11001
0.116452
0.120476
0.122548
0.123175
0.122803
0.121763
0.12048
0.119679
0.119819
0.121438
0.124119
0.127277
0.12992
0.131404
0.131367
0.129621
0.126169
0.12113
0.114706
0.107096
0.0984396
0.0890352
0.0794704
0.069794
0.0814396
0.0716655
0.0716819
0.0807413
0.0923124
0.102409
0.109933
0.114917
0.117776
0.119015
0.119109
0.118621
0.117907
0.117648
0.118284
0.120353
0.123392
0.126818
0.129669
0.131316
0.131373
0.129735
0.126434
0.121574
0.115321
0.107864
0.0993583
0.0904654
0.0812681
0.0718063
0.0955424
0.0825874
0.0739048
0.0756349
0.0845552
0.0947191
0.103169
0.109168
0.112897
0.114822
0.115438
0.115303
0.115042
0.115251
0.11631
0.118751
0.12208
0.125727
0.128768
0.130599
0.130805
0.129326
0.12618
0.121502
0.115451
0.108205
0.100131
0.0916611
0.082787
0.0735226
0.110132
0.0977132
0.08427
0.0768061
0.0794887
0.0876685
0.0963518
0.103236
0.107875
0.110553
0.111748
0.112025
0.112016
0.112576
0.113975
0.116702
0.120253
0.124075
0.127295
0.129319
0.129716
0.128444
0.125508
0.121042
0.115206
0.108261
0.100704
0.0926328
0.0840509
0.0749631
0.125336
0.11406
0.0997086
0.0860423
0.0797912
0.0828697
0.090095
0.0972953
0.102732
0.106188
0.108012
0.10875
0.109034
0.10974
0.111363
0.114285
0.117987
0.121938
0.12532
0.127543
0.128168
0.127136
0.12448
0.120257
0.114678
0.10822
0.101112
0.0934005
0.0850786
0.0761435
0.141099
0.130202
0.11659
0.100945
0.087509
0.0824869
0.0856349
0.0918282
0.0976136
0.101753
0.104218
0.105455
0.106077
0.106902
0.10858
0.111586
0.115365
0.119398
0.122919
0.125343
0.126223
0.125468
0.123123
0.119204
0.114072
0.108089
0.101382
0.0939878
0.0858886
0.0770778
0.157339
0.146548
0.133676
0.118125
0.101206
0.0884814
0.0847086
0.0877567
0.0928828
0.0973658
0.100394
0.102133
0.103124
0.104123
0.105786
0.108717
0.112482
0.116544
0.120173
0.122794
0.12395
0.123501
0.121498
0.118029
0.113426
0.107889
0.101542
0.0944222
0.0865034
0.0777776
0.173924
0.163049
0.150648
0.13561
0.117819
0.100189
0.0888479
0.0863299
0.0891855
0.093286
0.0966284
0.0988106
0.100172
0.101382
0.103083
0.105843
0.109463
0.113488
0.117183
0.119981
0.121421
0.121308
0.119772
0.116868
0.112768
0.10765
0.101626
0.0947367
0.0869525
0.0782663
0.190668
0.179625
0.167466
0.152795
0.135084
0.11529
0.0980113
0.0887094
0.0873777
0.0899483
0.0931057
0.0955562
0.0972454
0.0986793
0.100457
0.103109
0.106567
0.110457
0.114154
0.117108
0.118863
0.119175
0.118113
0.115739
0.112126
0.107412
0.101676
0.0949752
0.0872763
0.0785777
0.207425
0.196635
0.184339
0.169682
0.152091
0.131594
0.110752
0.0951782
0.0882925
0.0879271
0.0901258
0.09251
0.094408
0.0960441
0.097921
0.100515
0.103843
0.107616
0.111301
0.114387
0.116425
0.117145
0.116537
0.114668
0.111537
0.10722
0.101756
0.0951991
0.0875304
0.078758
0.224538
0.213571
0.200932
0.186094
0.168528
0.147881
0.125292
0.105066
0.0923589
0.087856
0.0881232
0.0899258
0.0918076
0.0935769
0.0955498
0.0981197
0.101348
0.105017
0.108679
0.111869
0.114164
0.115269
0.115096
0.113711
0.111058
0.107133
0.101944
0.0955109
0.0878041
0.078877
0.240752
0.229564
0.216766
0.201856
0.184332
0.163768
0.140532
0.117432
0.0996561
0.0903413
0.0877126
0.0882822
0.0898131
0.0915814
0.0936256
0.0961972
0.0993487
0.102922
0.106548
0.109806
0.112302
0.113749
0.113996
0.113057
0.110829
0.107294
0.102398
0.0960731
0.0882785
0.0790795
0.256607
0.245276
0.232395
0.217507
0.200141
0.179851
0.156622
0.132086
0.11054
0.0964466
0.0901629
0.0887592
0.089513
0.0911163
0.0932118
0.0958245
0.098927
0.102396
0.105933
0.109174
0.111765
0.113417
0.113986
0.113414
0.111567
0.108368
0.103701
0.0974091
0.0893576
0.0796655
0.273763
0.262487
0.249717
0.235056
0.218098
0.198435
0.17584
0.151131
0.127432
0.109327
0.099112
0.0951756
0.0947586
0.0960731
0.0982912
0.10103
0.104068
0.107327
0.110576
0.113523
0.11588
0.117408
0.117964
0.117448
0.115698
0.112586
0.107921
0.101397
0.0928003
0.0820889
0.296262
0.28544
0.273274
0.259552
0.24402
0.226295
0.205972
0.183251
0.159999
0.140139
0.127171
0.121075
0.119688
0.120949
0.123503
0.126401
0.129133
0.131682
0.133906
0.135652
0.136776
0.13717
0.136722
0.135298
0.132681
0.128722
0.123191
0.115613
0.105494
0.0924328
0.3406
0.331656
0.322459
0.312921
0.302758
0.291387
0.27804
0.262446
0.245129
0.228914
0.217547
0.212016
0.210995
0.212847
0.215783
0.218424
0.219932
0.220591
0.220411
0.219359
0.217585
0.21515
0.212023
0.208019
0.202484
0.195563
0.187413
0.177049
0.163835
0.147105
0.505529
0.503941
0.505008
0.505855
0.505904
0.504671
0.501479
0.496322
0.488028
0.478683
0.471506
0.467048
0.464769
0.464803
0.465881
0.46718
0.467136
0.467284
0.467302
0.46749
0.467788
0.468268
0.468664
0.468643
0.464818
0.459191
0.454128
0.445755
0.434616
0.420328
0.102123
0.119289
0.12597
0.128397
0.127796
0.125047
0.1208
0.115575
0.109723
0.103546
0.0972115
0.0909448
0.0848379
0.0791764
0.0741008
0.0699581
0.0669436
0.0654518
0.0654334
0.0661196
0.0661056
0.0641996
0.0597595
0.0527698
0.0438719
0.0339361
0.0254298
0.0230088
0.0206619
0.0199336
0.158014
0.181984
0.187758
0.186042
0.1802
0.172042
0.162701
0.152889
0.143022
0.133395
0.12412
0.115393
0.107233
0.09998
0.0937752
0.089049
0.0859704
0.0851979
0.0865262
0.0889943
0.0907838
0.0903428
0.0864285
0.0786956
0.0678916
0.0551246
0.0421768
0.0318146
0.031253
0.0267196
0.18529
0.212498
0.222181
0.222574
0.217794
0.209939
0.200284
0.18968
0.178673
0.167696
0.156963
0.146787
0.137252
0.128863
0.121864
0.116822
0.11389
0.11366
0.115554
0.118421
0.120327
0.11969
0.11508
0.106035
0.0932068
0.0777097
0.0613812
0.0452695
0.0372185
0.0344202
0.1935
0.222919
0.236246
0.239623
0.237452
0.231661
0.223446
0.213712
0.203116
0.192184
0.181251
0.170754
0.16088
0.152279
0.145322
0.140673
0.138438
0.138938
0.141246
0.144098
0.145648
0.144436
0.139085
0.129066
0.114954
0.0977678
0.0792379
0.0598783
0.0458631
0.0381188
0.19054
0.218345
0.235121
0.243114
0.244699
0.241849
0.235928
0.22791
0.218578
0.208502
0.198164
0.188096
0.178607
0.170478
0.164181
0.160449
0.159296
0.160649
0.163314
0.165973
0.166989
0.165081
0.159035
0.14835
0.133506
0.115412
0.095661
0.0745284
0.0567104
0.0445965
0.181094
0.207157
0.226343
0.237799
0.243062
0.243594
0.24037
0.234508
0.226963
0.218245
0.209049
0.19994
0.19136
0.184202
0.179013
0.17659
0.176754
0.179026
0.182003
0.184386
0.184814
0.18218
0.175508
0.164379
0.149196
0.13075
0.110468
0.0885338
0.0685268
0.0531544
0.166268
0.190187
0.211272
0.226059
0.235018
0.238969
0.238775
0.235405
0.229716
0.222637
0.215033
0.207261
0.199971
0.194153
0.190395
0.189575
0.191169
0.194381
0.19764
0.199731
0.199572
0.196238
0.189015
0.177598
0.162343
0.14394
0.12362
0.10154
0.0804416
0.0628627
0.146293
0.168591
0.191665
0.209723
0.222319
0.229527
0.232058
0.231284
0.227976
0.223066
0.217039
0.210833
0.205118
0.200902
0.198803
0.199776
0.202847
0.206986
0.210506
0.212334
0.211625
0.207668
0.199979
0.188391
0.173249
0.155167
0.135171
0.113402
0.0920032
0.0729947
0.124584
0.145263
0.169449
0.190577
0.206434
0.216346
0.221461
0.223277
0.222451
0.219762
0.215831
0.211406
0.207359
0.204922
0.204633
0.207487
0.212041
0.217063
0.220837
0.222453
0.221274
0.216799
0.208751
0.197102
0.182216
0.16465
0.145248
0.124111
0.10296
0.083025
0.107599
0.124722
0.148338
0.171072
0.188923
0.201035
0.208457
0.212776
0.214375
0.213909
0.211977
0.209526
0.207278
0.206609
0.208231
0.212935
0.218962
0.224805
0.22883
0.230305
0.228764
0.223899
0.215618
0.204031
0.189532
0.172653
0.153922
0.133478
0.112958
0.0925863
0.094982
0.107259
0.128739
0.152038
0.171619
0.185296
0.194525
0.200989
0.204756
0.206355
0.206385
0.2057
0.205238
0.206351
0.209847
0.216331
0.223753
0.230388
0.234668
0.236082
0.234307
0.229202
0.220839
0.209458
0.195515
0.179271
0.16122
0.141606
0.121866
0.101497
0.0867916
0.0932997
0.111226
0.133799
0.15444
0.169702
0.180803
0.188749
0.194254
0.197636
0.19935
0.200343
0.201595
0.204432
0.209723
0.217862
0.226547
0.233944
0.238511
0.239952
0.238082
0.232918
0.224651
0.21368
0.200228
0.184633
0.167326
0.148691
0.129679
0.109677
0.0841524
0.0837551
0.0965557
0.11674
0.137505
0.154328
0.167224
0.17671
0.183561
0.188198
0.191344
0.193845
0.19667
0.201117
0.208074
0.217724
0.227499
0.235543
0.240522
0.242076
0.240242
0.235251
0.227335
0.216746
0.203848
0.188935
0.172438
0.154972
0.136512
0.116892
0.0882406
0.0805121
0.085904
0.101671
0.121293
0.139178
0.15382
0.164752
0.172809
0.178621
0.182823
0.186579
0.190769
0.196657
0.205097
0.216035
0.226758
0.235564
0.240862
0.242611
0.240954
0.236271
0.228812
0.21879
0.206533
0.192375
0.176945
0.160341
0.142391
0.123143
0.0986707
0.0855241
0.0824628
0.091484
0.107349
0.124844
0.140653
0.152872
0.16203
0.168936
0.174254
0.178911
0.184186
0.191296
0.200978
0.212973
0.224475
0.23383
0.239611
0.241711
0.240346
0.235971
0.229111
0.219908
0.208438
0.195247
0.180912
0.164899
0.147367
0.128452
0.115746
0.0993111
0.08857
0.0880346
0.0980244
0.112566
0.128102
0.141207
0.151379
0.159294
0.165638
0.171219
0.177225
0.185269
0.195912
0.208713
0.220828
0.230677
0.23698
0.23956
0.238643
0.234894
0.228664
0.220314
0.209786
0.197802
0.184203
0.168722
0.151511
0.132865
0.139149
0.121139
0.105299
0.0951908
0.0952723
0.104439
0.11723
0.130229
0.141083
0.149858
0.157117
0.163552
0.170224
0.178827
0.19012
0.203465
0.216031
0.22632
0.233173
0.236367
0.236075
0.233125
0.227782
0.2203
0.211051
0.200054
0.186997
0.171918
0.154914
0.136449
0.168808
0.149909
0.131295
0.114051
0.103341
0.102668
0.110186
0.120922
0.131608
0.140881
0.148863
0.156043
0.163338
0.17225
0.183876
0.197501
0.21036
0.221037
0.228458
0.232382
0.232917
0.230936
0.226768
0.220467
0.212342
0.202025
0.189418
0.174605
0.157678
0.139285
0.204249
0.18465
0.164348
0.142789
0.123163
0.11118
0.109294
0.115085
0.123838
0.132812
0.141139
0.14887
0.1567
0.16598
0.177567
0.191209
0.204211
0.215234
0.223242
0.228018
0.229607
0.228873
0.226086
0.220935
0.213677
0.203924
0.191628
0.176927
0.159927
0.141476
0.244639
0.224427
0.202756
0.178429
0.152787
0.130605
0.11757
0.114606
0.119163
0.126416
0.134377
0.142303
0.150548
0.160145
0.171814
0.185204
0.198218
0.209565
0.218244
0.22405
0.226955
0.227491
0.225867
0.221919
0.21535
0.206011
0.193847
0.179066
0.16181
0.143153
0.288938
0.268134
0.245163
0.218667
0.188994
0.159239
0.135483
0.12229
0.119121
0.122763
0.129272
0.136852
0.145248
0.155082
0.166895
0.180309
0.193518
0.205236
0.214571
0.221253
0.225278
0.227052
0.226671
0.223823
0.217913
0.208689
0.19639
0.181264
0.163513
0.144445
0.336114
0.314757
0.290524
0.262076
0.229375
0.194321
0.161945
0.138346
0.125963
0.123381
0.126885
0.133338
0.141458
0.151433
0.163484
0.177093
0.190648
0.202854
0.212813
0.2203
0.225375
0.228084
0.228823
0.226993
0.221737
0.21264
0.199773
0.183915
0.165336
0.145558
0.385395
0.363602
0.338243
0.308043
0.272919
0.234101
0.19543
0.16285
0.140845
0.130546
0.129067
0.133084
0.140582
0.150611
0.163057
0.177173
0.191248
0.203924
0.214447
0.222584
0.228425
0.232032
0.233549
0.23243
0.227702
0.218615
0.205068
0.187817
0.167844
0.146878
0.436713
0.414738
0.388648
0.35726
0.3205
0.279216
0.236285
0.196807
0.166081
0.147434
0.139833
0.140078
0.146121
0.156179
0.169355
0.184339
0.199104
0.212349
0.223297
0.231843
0.238063
0.241894
0.243499
0.242458
0.237716
0.228415
0.213814
0.194827
0.172304
0.14922
0.491721
0.470308
0.444469
0.413139
0.376271
0.334442
0.289652
0.245943
0.20862
0.182471
0.168457
0.164447
0.168469
0.178589
0.193383
0.209873
0.225203
0.23872
0.249557
0.257502
0.262714
0.265318
0.265585
0.263066
0.256907
0.246164
0.229851
0.207962
0.181997
0.154862
0.557334
0.538163
0.514759
0.486154
0.452286
0.413454
0.370921
0.327597
0.288324
0.258575
0.24077
0.23427
0.237749
0.24954
0.267382
0.286015
0.301375
0.31346
0.321643
0.325798
0.326459
0.324023
0.318958
0.311165
0.299972
0.284467
0.263455
0.23634
0.203318
0.169029
0.65347
0.639853
0.622986
0.601965
0.576771
0.547454
0.514405
0.479746
0.447409
0.422791
0.408838
0.406164
0.414498
0.43193
0.454653
0.475313
0.488998
0.496491
0.497589
0.492331
0.481811
0.467416
0.450025
0.429821
0.406403
0.379119
0.346602
0.307395
0.260729
0.210089
0.826225
0.821175
0.814753
0.805898
0.795266
0.782429
0.766418
0.74835
0.730602
0.718364
0.714555
0.721165
0.737246
0.760538
0.78556
0.805569
0.816344
0.819037
0.812341
0.797161
0.774943
0.747701
0.716566
0.681558
0.642208
0.598344
0.548502
0.48981
0.420645
0.34299
1.06203
1.06273
1.07189
1.08199
1.09243
1.09895
1.09796
1.0922
1.08256
1.07675
1.07772
1.0865
1.10006
1.11696
1.13108
1.14044
1.14399
1.14202
1.13306
1.11818
1.09838
1.07504
1.0487
1.01858
0.983178
0.941956
0.892917
0.832491
0.758586
0.672205
1.15108
1.15626
1.17851
1.20121
1.21625
1.22136
1.21795
1.20978
1.20067
1.19488
1.19548
1.19866
1.20062
1.20164
1.19573
1.18767
1.18122
1.17402
1.16639
1.15888
1.1522
1.14654
1.14189
1.13772
1.132
1.12387
1.11155
1.09347
1.06936
1.03749
0.136278
0.157282
0.163588
0.166015
0.165067
0.161482
0.156049
0.14941
0.141984
0.13415
0.126104
0.11814
0.110331
0.103092
0.0966099
0.0914462
0.0880271
0.0876072
0.0905336
0.0947879
0.0969838
0.0950396
0.0882529
0.0769643
0.0622599
0.0456038
0.0292063
0.0220698
0.0212321
0.020707
0.215634
0.246427
0.25478
0.253099
0.2457
0.235165
0.223123
0.210448
0.197619
0.184963
0.172577
0.160706
0.149314
0.138933
0.129797
0.122685
0.118336
0.119153
0.125468
0.134473
0.141308
0.142772
0.1369
0.1236
0.104329
0.0812275
0.0575807
0.0379195
0.0332633
0.0293847
0.258249
0.29296
0.306046
0.307232
0.301196
0.290916
0.278267
0.264346
0.249778
0.23504
0.220384
0.206199
0.192581
0.180269
0.169699
0.161807
0.15739
0.158877
0.166112
0.176059
0.183612
0.185448
0.179107
0.164154
0.14196
0.11445
0.0851717
0.0574412
0.0428539
0.0383419
0.280436
0.314943
0.330334
0.335042
0.331881
0.323782
0.312516
0.299302
0.284879
0.269843
0.254613
0.239716
0.225418
0.212631
0.201998
0.19451
0.190854
0.193001
0.200326
0.209856
0.216823
0.218178
0.211336
0.195681
0.172223
0.142673
0.110319
0.0776348
0.0546306
0.0437959
0.287178
0.316692
0.335753
0.344881
0.345602
0.340723
0.331915
0.320495
0.307313
0.293067
0.278357
0.263824
0.249909
0.237695
0.227969
0.221715
0.219359
0.222187
0.229199
0.237641
0.243394
0.243814
0.23641
0.220474
0.196746
0.166638
0.132995
0.0977224
0.069051
0.0521202
0.283767
0.308471
0.328783
0.341427
0.346565
0.345563
0.339899
0.331032
0.319854
0.307161
0.293785
0.280417
0.267709
0.25688
0.248802
0.244407
0.243692
0.24719
0.253669
0.260713
0.264933
0.264127
0.25607
0.240065
0.216624
0.186868
0.153147
0.116945
0.084919
0.0630446
0.27409
0.293087
0.312981
0.328383
0.337674
0.340965
0.339271
0.333165
0.324353
0.313737
0.302396
0.290815
0.279975
0.2712
0.265359
0.263339
0.264442
0.268592
0.274426
0.279933
0.282498
0.28029
0.271503
0.255524
0.232686
0.20384
0.17085
0.134922
0.101264
0.0756485
0.256993
0.27038
0.289886
0.307847
0.32113
0.328616
0.330758
0.328263
0.322511
0.314612
0.305345
0.295992
0.287577
0.2814
0.278277
0.279024
0.282022
0.286793
0.291935
0.295894
0.296792
0.293122
0.283562
0.267643
0.24559
0.218001
0.186351
0.15125
0.117277
0.0890019
0.231747
0.24156
0.261499
0.281883
0.298868
0.310388
0.316334
0.317537
0.315092
0.310129
0.303645
0.296894
0.291216
0.288062
0.288056
0.291819
0.296732
0.30207
0.306525
0.309027
0.308304
0.303217
0.292908
0.277081
0.255916
0.229777
0.19942
0.165671
0.13224
0.102322
0.203784
0.210856
0.230363
0.252699
0.272905
0.288048
0.297604
0.302307
0.303249
0.301444
0.298015
0.294243
0.291568
0.291661
0.295125
0.30198
0.308784
0.314632
0.318439
0.319646
0.317397
0.311035
0.300069
0.284412
0.264106
0.239178
0.21035
0.17833
0.145889
0.11514
0.178884
0.182038
0.199953
0.223183
0.245555
0.263484
0.276092
0.284001
0.288094
0.289437
0.289184
0.288582
0.289172
0.292702
0.299731
0.309663
0.318346
0.324635
0.327874
0.327965
0.324379
0.316944
0.305487
0.290089
0.270419
0.246705
0.219498
0.189463
0.158107
0.12732
0.158543
0.156449
0.171455
0.194394
0.21812
0.238238
0.253418
0.263978
0.270815
0.27507
0.277883
0.28049
0.284403
0.291524
0.302127
0.315029
0.325498
0.332213
0.335005
0.334151
0.329494
0.321249
0.30961
0.294325
0.275313
0.252815
0.227412
0.199129
0.168799
0.138326
0.143716
0.135471
0.146193
0.167339
0.191392
0.213095
0.230413
0.243285
0.252551
0.259256
0.264853
0.27052
0.277703
0.288436
0.302518
0.318209
0.330305
0.33751
0.339975
0.338384
0.332962
0.32431
0.312534
0.297488
0.279207
0.258072
0.234352
0.207295
0.177961
0.148
0.136225
0.121566
0.126132
0.143421
0.166319
0.188748
0.207742
0.222593
0.233985
0.242935
0.250826
0.259231
0.269483
0.283708
0.301071
0.319313
0.332867
0.340628
0.342921
0.340831
0.335084
0.326272
0.314524
0.299916
0.282529
0.262884
0.240209
0.214136
0.18566
0.156282
0.13794
0.118526
0.114326
0.125071
0.144499
0.166203
0.186082
0.202484
0.215684
0.226594
0.236569
0.247187
0.26015
0.277604
0.297945
0.318461
0.33336
0.341683
0.344014
0.341744
0.335932
0.327222
0.315852
0.301964
0.285938
0.267224
0.245165
0.219809
0.192001
0.163192
0.147989
0.126085
0.114365
0.115867
0.128628
0.14718
0.166451
0.183629
0.198185
0.210724
0.222501
0.234969
0.250132
0.270403
0.293318
0.315803
0.3319
0.340888
0.343497
0.341289
0.335683
0.327472
0.316897
0.304367
0.289376
0.271074
0.24938
0.224465
0.197116
0.168804
0.168024
0.145043
0.127974
0.119539
0.122483
0.13448
0.150575
0.167032
0.182144
0.195823
0.209043
0.223065
0.239937
0.262427
0.287434
0.311579
0.328803
0.33857
0.341746
0.340051
0.335117
0.327657
0.31862
0.307251
0.292677
0.274594
0.253003
0.228257
0.201146
0.173221
0.198927
0.175071
0.154532
0.138264
0.129755
0.131211
0.141077
0.154243
0.168487
0.182499
0.196655
0.211889
0.230316
0.254131
0.280691
0.306194
0.324518
0.335244
0.339293
0.338581
0.334813
0.329186
0.321395
0.310446
0.296057
0.277942
0.25618
0.231336
0.204243
0.17657
0.239496
0.214677
0.191583
0.169772
0.151569
0.141043
0.140033
0.147375
0.15855
0.171589
0.185905
0.202004
0.221678
0.246195
0.273787
0.300349
0.319812
0.331773
0.337014
0.338013
0.336018
0.33173
0.3248
0.314281
0.299758
0.281309
0.259095
0.233874
0.206569
0.178999
0.287969
0.261865
0.236376
0.21042
0.185063
0.163805
0.151038
0.148283
0.153978
0.164253
0.177712
0.194157
0.214687
0.239823
0.267995
0.29528
0.316012
0.32967
0.33679
0.339151
0.338639
0.335516
0.329342
0.319077
0.304103
0.284962
0.261971
0.236076
0.208315
0.180667
0.342502
0.314739
0.286721
0.257215
0.226558
0.197073
0.173408
0.159709
0.156589
0.162035
0.173385
0.189506
0.210529
0.236218
0.265216
0.293392
0.3158
0.33075
0.339319
0.343116
0.343854
0.341596
0.335856
0.325624
0.310035
0.289515
0.265242
0.238271
0.209735
0.181767
0.401588
0.37197
0.341369
0.30864
0.273819
0.23834
0.206052
0.181996
0.169244
0.167375
0.174789
0.189193
0.210364
0.237424
0.267921
0.297436
0.321285
0.337585
0.347411
0.352402
0.353884
0.35191
0.346001
0.335334
0.318736
0.296402
0.269921
0.241147
0.211301
0.182625
0.464592
0.433288
0.400436
0.365045
0.327081
0.287452
0.249102
0.216746
0.194786
0.185086
0.186878
0.198988
0.220265
0.24866
0.281353
0.312841
0.338105
0.355391
0.366218
0.371703
0.373033
0.370222
0.363028
0.350859
0.332694
0.308148
0.278574
0.246431
0.21412
0.183929
0.532673
0.50049
0.466453
0.429693
0.390154
0.34845
0.306806
0.269161
0.240194
0.223481
0.219629
0.228795
0.249998
0.28082
0.317146
0.351306
0.377461
0.395351
0.406109
0.410625
0.40998
0.404239
0.393699
0.378096
0.356675
0.328911
0.295381
0.258739
0.22145
0.187575
0.610776
0.579678
0.546726
0.511114
0.472722
0.432009
0.390746
0.352152
0.320605
0.300399
0.293377
0.301215
0.323643
0.357808
0.399401
0.436148
0.462169
0.479016
0.487349
0.488116
0.481923
0.469696
0.452255
0.429858
0.40204
0.368346
0.328891
0.284916
0.240388
0.199584
0.712026
0.685564
0.657414
0.626928
0.593874
0.558701
0.523075
0.489715
0.462373
0.445239
0.440597
0.451788
0.478264
0.517003
0.563331
0.600786
0.624471
0.637283
0.639901
0.632676
0.616784
0.593829
0.565212
0.531699
0.493142
0.44918
0.399477
0.344457
0.286222
0.231779
0.863375
0.845942
0.826622
0.805778
0.782789
0.758285
0.733815
0.711564
0.694409
0.685898
0.688825
0.706923
0.738744
0.781007
0.827515
0.861014
0.879056
0.885338
0.879994
0.863552
0.837748
0.804504
0.765065
0.720096
0.669532
0.613008
0.549949
0.479122
0.40145
0.323086
1.08958
1.0834
1.07779
1.06993
1.05978
1.04778
1.03524
1.02357
1.01524
1.01352
1.02218
1.04341
1.07522
1.11239
1.14732
1.16577
1.17245
1.16991
1.1584
1.13885
1.11288
1.08188
1.04585
1.00381
0.954256
0.895893
0.827983
0.747881
0.654856
0.553837
1.32473
1.32407
1.33457
1.34584
1.35227
1.35149
1.34437
1.33407
1.32478
1.32074
1.32544
1.33864
1.35666
1.37042
1.37493
1.36207
1.34929
1.33441
1.31997
1.30529
1.29211
1.28098
1.27087
1.25871
1.24095
1.21452
1.17278
1.11618
1.04285
0.955138
1.34862
1.36086
1.38433
1.4068
1.42067
1.42377
1.41679
1.40441
1.39218
1.38419
1.3821
1.38285
1.38187
1.37468
1.35483
1.32169
1.29655
1.2742
1.25832
1.24818
1.245
1.24856
1.25774
1.26956
1.28046
1.28736
1.28695
1.2791
1.26165
1.23594
0.16938
0.193486
0.199192
0.20014
0.198247
0.193685
0.187112
0.179188
0.170365
0.161053
0.151428
0.141836
0.132298
0.123363
0.115267
0.108932
0.105475
0.108479
0.118712
0.13031
0.136323
0.134354
0.124601
0.108405
0.0871843
0.0626664
0.0381577
0.022333
0.0211941
0.0209125
0.271561
0.307087
0.314284
0.312077
0.30347
0.291204
0.277179
0.262348
0.247161
0.231931
0.216671
0.201644
0.186723
0.172756
0.16016
0.150479
0.146121
0.153511
0.172654
0.194763
0.209407
0.212389
0.202699
0.181725
0.151665
0.11521
0.0776314
0.0442193
0.0322462
0.0297902
0.329913
0.368395
0.381581
0.382834
0.375877
0.363957
0.349216
0.332775
0.315265
0.297181
0.278741
0.260335
0.242073
0.225111
0.210237
0.199214
0.194883
0.203796
0.22509
0.249335
0.265724
0.269849
0.259988
0.237032
0.203084
0.160448
0.114329
0.0696757
0.0449858
0.0383767
0.36593
0.400558
0.417742
0.422807
0.418967
0.409379
0.395982
0.379978
0.362176
0.343236
0.3236
0.30377
0.284154
0.266126
0.250835
0.24004
0.236567
0.246188
0.267217
0.290606
0.306357
0.310346
0.300459
0.277229
0.242239
0.197308
0.147068
0.0957065
0.0598283
0.0452565
0.384692
0.414121
0.433156
0.442015
0.442178
0.436034
0.425146
0.410756
0.393881
0.375372
0.355851
0.335957
0.316361
0.298649
0.28422
0.274731
0.272694
0.282683
0.30233
0.32336
0.337188
0.34019
0.330092
0.307171
0.272546
0.22759
0.176124
0.121533
0.0776816
0.0548861
0.388667
0.410618
0.430601
0.44432
0.44985
0.447921
0.440451
0.428552
0.413551
0.396512
0.37814
0.359262
0.34081
0.324543
0.312003
0.30467
0.304469
0.314624
0.332284
0.350214
0.361334
0.362717
0.352116
0.329655
0.296112
0.252479
0.201749
0.146374
0.0976694
0.0674189
0.383043
0.399393
0.418701
0.435076
0.445004
0.447969
0.444212
0.43544
0.423084
0.408439
0.392095
0.375194
0.358839
0.345018
0.335247
0.330801
0.332644
0.342817
0.358145
0.372583
0.380602
0.379925
0.36855
0.346527
0.31442
0.27294
0.22375
0.168923
0.118052
0.0820185
0.369126
0.378838
0.39701
0.415679
0.429775
0.437214
0.438219
0.433517
0.424569
0.412477
0.398835
0.384789
0.37142
0.360935
0.35471
0.353727
0.357693
0.367712
0.380528
0.391342
0.39615
0.393127
0.380792
0.35914
0.328666
0.289227
0.242033
0.188979
0.137848
0.0976757
0.346144
0.350056
0.367253
0.387991
0.406016
0.417963
0.423601
0.42328
0.41826
0.409882
0.399903
0.388916
0.379342
0.372977
0.370993
0.37387
0.379911
0.389573
0.399806
0.407066
0.408709
0.403282
0.389887
0.368579
0.339159
0.301731
0.257125
0.206753
0.156466
0.113639
0.315606
0.314964
0.331373
0.353973
0.37571
0.391959
0.40221
0.406252
0.405595
0.401414
0.395591
0.388879
0.38335
0.381718
0.384617
0.391519
0.399468
0.408558
0.416227
0.420179
0.418779
0.411099
0.396641
0.375377
0.346874
0.311477
0.269823
0.222394
0.173326
0.129254
0.28461
0.278835
0.29362
0.317046
0.341265
0.36122
0.375755
0.384112
0.387766
0.388093
0.386802
0.384581
0.38402
0.387783
0.395919
0.406842
0.416462
0.424773
0.429997
0.430971
0.42677
0.417124
0.40188
0.380391
0.352781
0.319574
0.280577
0.235516
0.187982
0.143719
0.255807
0.243937
0.25609
0.279265
0.305109
0.328007
0.346133
0.358483
0.366277
0.371021
0.37437
0.377052
0.381949
0.39163
0.405114
0.419909
0.430956
0.438316
0.441329
0.439626
0.433075
0.421848
0.405879
0.384398
0.357837
0.326512
0.289245
0.246169
0.200383
0.156666
0.230843
0.212435
0.220858
0.242477
0.268864
0.293875
0.314896
0.330852
0.342523
0.351377
0.359185
0.36693
0.377688
0.393685
0.412426
0.430799
0.44296
0.449304
0.450397
0.446422
0.438069
0.42584
0.409373
0.388116
0.362812
0.332264
0.295978
0.254585
0.210538
0.16784
0.210546
0.186847
0.190369
0.208745
0.234198
0.260231
0.283407
0.302395
0.317611
0.33033
0.342224
0.354926
0.371794
0.393929
0.417998
0.43957
0.452531
0.45791
0.457398
0.451703
0.442209
0.429592
0.412996
0.392644
0.367623
0.336858
0.301086
0.261018
0.218576
0.177155
0.198797
0.170891
0.16792
0.180864
0.203296
0.228766
0.253067
0.274314
0.292525
0.308732
0.324481
0.341787
0.36477
0.392938
0.421986
0.446298
0.459805
0.464377
0.462651
0.45591
0.446047
0.433627
0.417817
0.397693
0.371852
0.340561
0.304884
0.265726
0.22469
0.184653
0.199105
0.170023
0.157804
0.162581
0.179217
0.201755
0.225571
0.247947
0.268407
0.287583
0.306878
0.328334
0.357111
0.391098
0.424565
0.451139
0.465041
0.469067
0.466687
0.4597
0.450206
0.43881
0.423451
0.402552
0.375639
0.343546
0.307622
0.268993
0.22911
0.190456
0.209442
0.180242
0.162389
0.157719
0.165892
0.182214
0.203073
0.224934
0.24647
0.267848
0.290194
0.3157
0.349343
0.388599
0.425971
0.454401
0.468702
0.472593
0.470319
0.463962
0.455857
0.444993
0.429156
0.407169
0.379028
0.345948
0.309511
0.27109
0.232077
0.194721
0.232266
0.203493
0.181853
0.168766
0.165437
0.173461
0.188233
0.20715
0.228126
0.25058
0.275335
0.304585
0.342165
0.385889
0.426635
0.456679
0.471635
0.476018
0.474851
0.470332
0.462695
0.451934
0.435073
0.411672
0.382133
0.34791
0.31076
0.272286
0.233865
0.197649
0.269126
0.23952
0.21471
0.194846
0.181675
0.177688