/*--------------------------------*- C++ -*----------------------------------*\
| =========                 |                                                 |
| \\      /  F ield         | OpenFOAM: The Open Source CFD Toolbox           |
|  \\    /   O peration     | Version:  5.0                                   |
|   \\  /    A nd           | Web:      www.OpenFOAM.org                      |
|    \\/     M anipulation  |                                                 |
\*---------------------------------------------------------------------------*/
FoamFile
{
    version     2.0;
    format      ascii;
    class       volScalarField;
    location    "1500/air";
    object      nut;
}
// * * * * * * * * * * * * * * * * * * * * * * * * * * * * * * * * * * * * * //

dimensions      [0 2 -1 0 0 0 0];

internalField   nonuniform List<scalar> 
243000
(
0.000139288
0.000142443
0.000139985
0.000135848
0.000130632
0.000124852
0.000118835
0.000112826
0.000106994
0.000101488
9.63666e-05
9.16675e-05
8.73679e-05
8.35295e-05
8.01802e-05
7.74601e-05
7.54981e-05
7.45196e-05
7.45516e-05
7.53804e-05
7.65117e-05
7.73837e-05
7.75075e-05
7.65665e-05
7.45425e-05
7.29878e-05
7.01961e-05
0.000309113
0.0002811
0.000287379
0.00060324
0.000640427
0.000649424
0.000649145
0.000642964
0.000632651
0.000619501
0.000604468
0.000588195
0.000571189
0.000553686
0.000535971
0.000518174
0.000500941
0.000484762
0.000470601
0.000459298
0.000452346
0.000449639
0.000449855
0.000450201
0.000447909
0.000440564
0.000426952
0.000407347
0.00037923
0.000352431
0.000323105
0.000291168
0.000274284
0.000648199
0.000685016
0.000696731
0.000697639
0.000691864
0.000681568
0.000668147
0.000652616
0.000635657
0.000617868
0.000599521
0.000581006
0.000562543
0.000544911
0.000528689
0.000514963
0.000504595
0.000498953
0.00049753
0.000498648
0.000499501
0.000497477
0.000490226
0.000476471
0.000456308
0.000430116
0.000399416
0.000362924
0.000325756
0.000295998
0.000664611
0.000703628
0.000718862
0.00072273
0.000719209
0.000710705
0.000698605
0.000683976
0.000667575
0.000650089
0.000631883
0.000613472
0.000595168
0.000577877
0.000562283
0.000549587
0.00054064
0.000536556
0.000536334
0.000537992
0.00053885
0.000536577
0.000529082
0.000515165
0.00049478
0.000468296
0.000436658
0.000398412
0.000358414
0.000323444
0.000663349
0.000702765
0.000723632
0.000732218
0.000732124
0.000726411
0.000716511
0.000703588
0.000688496
0.000671999
0.000654576
0.000636857
0.000619259
0.000602813
0.000588288
0.000576989
0.000569713
0.00056724
0.000568074
0.000570051
0.000570694
0.000567969
0.000560102
0.000546045
0.00052568
0.000499282
0.000467656
0.00042942
0.000387913
0.000350407
0.000650977
0.000691437
0.000717207
0.000730513
0.000734673
0.000732377
0.000725192
0.000714494
0.000701189
0.000686139
0.000669929
0.000653301
0.000636788
0.000621532
0.000608368
0.000598697
0.00059321
0.000592313
0.000594064
0.000596239
0.000596592
0.00059335
0.000585072
0.000570895
0.000550693
0.000524693
0.000493565
0.000456119
0.000414113
0.000375267
0.000628898
0.000672313
0.000702742
0.000720877
0.000729475
0.000731005
0.000726972
0.000718666
0.000707436
0.000694196
0.000679519
0.000664268
0.0006491
0.000635285
0.000623666
0.000615774
0.000612115
0.000612702
0.000615269
0.000617582
0.000617638
0.000613893
0.000605216
0.000590941
0.000570979
0.000545534
0.000515152
0.000478844
0.000437377
0.000397768
0.000599222
0.000646924
0.00068207
0.000705076
0.000718281
0.000723778
0.000723154
0.000717802
0.000708879
0.000697391
0.000684451
0.000670799
0.000657174
0.000644955
0.000635021
0.000628988
0.000627147
0.000629108
0.000632406
0.000634846
0.000634633
0.000630449
0.00062142
0.000607077
0.00058739
0.000562567
0.000533066
0.000498154
0.000457732
0.000417893
0.000566793
0.000618058
0.000657126
0.000684731
0.000702442
0.000711941
0.000714805
0.000712485
0.000706134
0.000696967
0.000685821
0.000673699
0.000661755
0.000651233
0.000643066
0.00063892
0.000638843
0.000642067
0.000646032
0.000648606
0.000648186
0.000643651
0.000634349
0.000619981
0.000600593
0.000576421
0.000547938
0.000514224
0.000475032
0.000435681
0.000535026
0.000588475
0.000631025
0.00066194
0.000683297
0.000696574
0.000702898
0.00070371
0.000700076
0.00069322
0.000684058
0.000673861
0.000663487
0.000654672
0.000648298
0.000646025
0.000647606
0.000651997
0.000656575
0.000659308
0.000658761
0.000653983
0.0006445
0.000630167
0.000611115
0.000587683
0.000560018
0.000527365
0.000489465
0.000451188
0.000506907
0.000558008
0.000603798
0.000638451
0.000662993
0.000678897
0.000688396
0.00069222
0.000691363
0.0006869
0.000679832
0.000671453
0.000662835
0.000655713
0.000651109
0.000650642
0.000653771
0.000659234
0.000664387
0.000667312
0.000666729
0.000661821
0.000652268
0.000638048
0.000619432
0.000596583
0.000569635
0.000537968
0.000501653
0.000464578
0.000487844
0.000527887
0.000575092
0.00061363
0.000641855
0.000660809
0.000672622
0.000678829
0.000680563
0.000678502
0.000673551
0.000667051
0.000660152
0.000654709
0.000651817
0.000653044
0.000657596
0.000664055
0.000669752
0.00067291
0.000672385
0.00066747
0.000657966
0.000643992
0.000625754
0.000603442
0.000577128
0.000546327
0.000511884
0.000476111
0.000484337
0.000502265
0.000545536
0.000587105
0.000619352
0.000641849
0.000656424
0.000664778
0.000668338
0.000668488
0.000665607
0.000660975
0.000655788
0.000651961
0.00065069
0.000653475
0.000659293
0.000666658
0.000672915
0.000676345
0.000675973
0.000671177
0.000661893
0.0006482
0.000630335
0.000608525
0.000582773
0.000552747
0.000520311
0.000485924
0.000500703
0.00048971
0.000518279
0.000559252
0.000595149
0.000621597
0.00063944
0.000650324
0.000655836
0.00065745
0.000656402
0.000653544
0.000650005
0.000647725
0.000647958
0.000652141
0.000659112
0.000667283
0.000674063
0.000677831
0.000677705
0.000673189
0.000664188
0.000650829
0.00063338
0.00061205
0.000586832
0.00055815
0.00052737
0.000494261
0.000533819
0.000500976
0.00050169
0.000532753
0.000569609
0.000599822
0.000621352
0.000635192
0.000642975
0.000646282
0.000646478
0.000645091
0.00064306
0.000642231
0.00064381
0.000649223
0.000657171
0.00066606
0.000673379
0.000677569
0.000677681
0.000673441
0.000664838
0.000651972
0.000635031
0.000614202
0.000589527
0.00056259
0.000533278
0.000501314
0.000577978
0.000537265
0.000508684
0.000515347
0.000545142
0.000576933
0.000602007
0.000619157
0.00062956
0.00063483
0.000636465
0.000636027
0.000635228
0.00063568
0.000638432
0.000644891
0.000653661
0.000663171
0.000671012
0.000675685
0.000676179
0.000672342
0.000664132
0.000651738
0.000635345
0.00061513
0.000591792
0.00056627
0.000538214
0.000507247
0.000620693
0.000584228
0.000542573
0.000518605
0.000528336
0.000555036
0.000581834
0.000602163
0.000615447
0.000622955
0.000626241
0.000626944
0.000626844
0.000628289
0.000632009
0.000639313
0.000648749
0.000658786
0.000667141
0.000672334
0.000673324
0.000670008
0.00066232
0.000650462
0.000634628
0.000615257
0.000593455
0.000569235
0.000542279
0.000512167
0.000662217
0.000631468
0.000590132
0.000548286
0.000528665
0.000539384
0.000562607
0.000584624
0.000600645
0.000610573
0.000615715
0.000617738
0.000618466
0.000620348
0.000624748
0.000632669
0.000642608
0.000653077
0.000661925
0.000667674
0.000669259
0.000666546
0.000659563
0.000648307
0.000633129
0.000615104
0.000594622
0.000571556
0.000545553
0.000516155
0.000702673
0.000674788
0.000638262
0.000593675
0.000553004
0.000537642
0.000548318
0.000567945
0.000585526
0.000597727
0.000604838
0.000608335
0.000610041
0.000612294
0.000616915
0.000625171
0.000635434
0.000646234
0.000655536
0.000661863
0.000664129
0.00066212
0.000655914
0.00064542
0.000631421
0.000614693
0.000595377
0.000573314
0.00054811
0.000519281
0.00074205
0.000715978
0.000683577
0.000642302
0.00059441
0.000556206
0.000544928
0.000555069
0.00057115
0.000584726
0.000593668
0.000598706
0.000601511
0.000604303
0.000608944
0.000617102
0.000627456
0.000638466
0.000648162
0.000655076
0.000658088
0.000656873
0.00065153
0.000642191
0.000629588
0.000614083
0.000595806
0.000574597
0.000550031
0.000521599
0.00078021
0.000755281
0.0007258
0.000688369
0.000641374
0.000591478
0.000557544
0.000550227
0.000559566
0.000572337
0.000582449
0.00058891
0.000592862
0.000596316
0.000601133
0.000608912
0.000618997
0.000630047
0.000640044
0.000647514
0.000651311
0.000650979
0.000646848
0.000638985
0.000627716
0.000613358
0.000596007
0.000575511
0.000551417
0.000523198
0.000816931
0.000792804
0.000765345
0.000730844
0.000686922
0.000634425
0.000585174
0.000557326
0.000553647
0.00056194
0.000571731
0.000579146
0.000584154
0.000588331
0.000593446
0.000601017
0.000610771
0.000621588
0.000631721
0.000639705
0.000644395
0.000645198
0.000642311
0.000635847
0.00062588
0.00061263
0.000596108
0.00057619
0.0005524
0.000524198
0.000852099
0.000829575
0.000803075
0.000770309
0.000729058
0.000677914
0.000621876
0.000576886
0.000556218
0.00055545
0.000562467
0.00056984
0.000575581
0.000580437
0.000585924
0.000593427
0.000602934
0.000613556
0.000623776
0.00063222
0.000637732
0.000639649
0.00063797
0.000632851
0.000624185
0.000612034
0.000596295
0.000576823
0.00055316
0.000524758
0.000886589
0.000864573
0.000838488
0.000806792
0.000767581
0.000718792
0.000661451
0.000605855
0.000568537
0.000554995
0.000556091
0.000561799
0.000567599
0.000572942
0.000578799
0.00058633
0.000595663
0.000606113
0.000616389
0.000625213
0.000631485
0.000634473
0.000633973
0.000630156
0.000622792
0.000611742
0.000596798
0.00057772
0.00055398
0.000525113
0.000918032
0.000896373
0.000870937
0.000840331
0.000802868
0.000756554
0.000700625
0.000640425
0.000590283
0.000562526
0.000554641
0.000556577
0.000561379
0.000566797
0.000572948
0.00058057
0.000589774
0.000600051
0.000610319
0.000619413
0.000626297
0.000630245
0.000630896
0.000628295
0.000622104
0.000612149
0.000598077
0.000579373
0.000555431
0.000525744
0.000947788
0.00092656
0.00090182
0.000872351
0.000836666
0.000792946
0.000739763
0.000679222
0.000621498
0.000580948
0.000562121
0.000557955
0.00056038
0.000565327
0.000571669
0.000579444
0.00058853
0.000598527
0.000608564
0.000617628
0.000624784
0.000629304
0.000630838
0.000629247
0.000624125
0.000615161
0.000601828
0.000583348
0.000558777
0.000527651
0.000978964
0.000958534
0.000934853
0.000906903
0.000873457
0.000832999
0.000783952
0.000726622
0.000667229
0.000618291
0.000589093
0.000577568
0.000576429
0.000580415
0.000586986
0.000594951
0.000603631
0.000612793
0.000621792
0.000629843
0.00063621
0.000640298
0.000641759
0.000640338
0.000635568
0.000627006
0.000613938
0.000595155
0.000569424
0.000535596
0.0010184
0.000999583
0.000977985
0.000953036
0.000923979
0.000889659
0.000848614
0.000800284
0.000747726
0.000699926
0.000667058
0.000651164
0.000647594
0.000651055
0.000657852
0.000665418
0.000672421
0.000678846
0.000684374
0.000688656
0.000691366
0.00069226
0.00069106
0.000687422
0.000680748
0.000670544
0.000656029
0.000635589
0.000607188
0.000568386
0.001092
0.00107753
0.00106244
0.00104655
0.00102934
0.00100975
0.000986253
0.000958102
0.000925896
0.000894815
0.000872501
0.000861537
0.000859603
0.000863453
0.000869397
0.000874654
0.00087759
0.0008788
0.000878326
0.000876116
0.000872462
0.000867482
0.000861094
0.000852894
0.000841462
0.000826962
0.000809577
0.000786912
0.000757006
0.000717337
0.00133051
0.0013284
0.00132979
0.00133088
0.00133093
0.00132928
0.00132504
0.00131819
0.00130709
0.00129454
0.00128486
0.00127884
0.00127576
0.00127587
0.00127737
0.00127915
0.00127906
0.00127923
0.00127923
0.00127945
0.00127983
0.00128046
0.00128098
0.00128095
0.00127571
0.00126794
0.00126094
0.00124928
0.00123357
0.00121312
0.000168769
0.000175583
0.000173848
0.000169307
0.000163173
0.000156197
0.000148871
0.00014154
0.000134406
0.000127636
0.00012129
0.000115463
0.00011017
0.000105559
0.000101692
9.87989e-05
9.70359e-05
9.67247e-05
9.78847e-05
9.99711e-05
0.000101922
0.000102752
0.000101723
9.83475e-05
9.24778e-05
8.40322e-05
7.29292e-05
0.000315047
0.000303791
0.000319819
0.000635716
0.00071815
0.000695301
0.00064801
0.00059583
0.000546109
0.000501665
0.000462828
0.000429132
0.000400086
0.000374721
0.000352865
0.000333486
0.000317356
0.00030391
0.000294102
0.000287437
0.000286077
0.000288389
0.000294107
0.000301598
0.000308758
0.000310705
0.000303144
0.000286979
0.000262319
0.000235672
0.000256891
0.000326299
0.000327883
0.000997083
0.00114916
0.00116154
0.00111636
0.00105069
0.00098043
0.000913421
0.000852351
0.000797796
0.000749826
0.000707328
0.000670434
0.000637654
0.000610693
0.000588959
0.000573589
0.000563301
0.000560335
0.000559276
0.000560693
0.00056423
0.000568673
0.000565486
0.000549777
0.000518381
0.000472523
0.000418995
0.000369579
0.00037192
0.000403084
0.0012038
0.00141286
0.00146909
0.001446
0.00139082
0.00132168
0.0012499
0.00118086
0.0011169
0.00105905
0.00100692
0.000961355
0.000921299
0.000889096
0.000864529
0.00084882
0.000839625
0.0008366
0.000831973
0.000826964
0.000823038
0.000820009
0.000809226
0.000782634
0.000737197
0.000673516
0.000597812
0.000512041
0.000456373
0.000447884
0.00130326
0.00152488
0.00162531
0.00164816
0.00162094
0.00156666
0.00150167
0.00143477
0.00137035
0.00131007
0.00125498
0.00120667
0.00116494
0.00113279
0.00111053
0.00109909
0.00109468
0.00109309
0.00108559
0.00107417
0.0010626
0.00105111
0.00103171
0.000995468
0.000938928
0.000862241
0.000770802
0.00066345
0.000569523
0.000518025
0.0013505
0.00157616
0.00170573
0.00175991
0.00176145
0.00173023
0.00167906
0.00162071
0.00156256
0.00150535
0.0014528
0.00140657
0.00136792
0.00134034
0.00132452
0.00132106
0.00132354
0.00132413
0.00131428
0.00129737
0.00127896
0.00125948
0.00123186
0.00118792
0.00112329
0.00103753
0.000935683
0.00081555
0.000698303
0.000612212
0.00135396
0.00156763
0.00171574
0.0017991
0.00183094
0.00182555
0.00179588
0.00175205
0.00170131
0.00165049
0.00160567
0.00156539
0.00153347
0.00151436
0.00150818
0.0015157
0.00152605
0.00152902
0.00151733
0.00149605
0.00147194
0.00144524
0.00141073
0.00136093
0.00129081
0.00119953
0.00109114
0.000963585
0.000832899
0.000721511
0.00129983
0.00150021
0.00166608
0.00177891
0.00184236
0.0018644
0.00185687
0.00183154
0.00179552
0.00175796
0.00171961
0.00168763
0.00166559
0.00165793
0.00166395
0.00168468
0.00170325
0.00170885
0.00169579
0.00167129
0.00164267
0.0016102
0.00157043
0.00151588
0.00144234
0.00134833
0.00123699
0.00110617
0.000968088
0.000837768
0.00118628
0.00138009
0.00156543
0.00170965
0.00180551
0.0018555
0.0018718
0.00186756
0.00184953
0.00182606
0.00180039
0.00177927
0.00176805
0.00177397
0.00179422
0.00182951
0.00185658
0.00186528
0.00185159
0.0018249
0.00179288
0.00175731
0.00171365
0.00165578
0.00157942
0.0014847
0.00137355
0.00124302
0.00110187
0.000954264
0.00106442
0.00122819
0.00142332
0.00160003
0.00172803
0.00180786
0.00184979
0.00186836
0.00187034
0.00186319
0.00185176
0.001844
0.0018459
0.0018652
0.00190141
0.00195129
0.00198762
0.00199821
0.00198453
0.00195673
0.00192392
0.00188565
0.0018394
0.00178023
0.00170385
0.0016104
0.00149986
0.00136949
0.00122878
0.0010673
0.000957332
0.00107283
0.00125622
0.00145134
0.00161402
0.00172907
0.00179788
0.00184083
0.00186372
0.00187418
0.00187842
0.00188475
0.00190101
0.00193455
0.00198723
0.00205142
0.00209726
0.00211196
0.00209912
0.00207097
0.00203771
0.00199721
0.00194957
0.0018903
0.00181704
0.001724
0.00161391
0.00148563
0.00134583
0.00117567
0.000879967
0.000936815
0.00108821
0.00128336
0.00146821
0.0016143
0.00171894
0.00178874
0.00183374
0.00186267
0.00188295
0.0019044
0.00193559
0.00198393
0.00205337
0.00213125
0.00218631
0.0022064
0.00219551
0.0021684
0.00213569
0.0020947
0.00204629
0.00198894
0.00191645
0.00182536
0.00171664
0.00159219
0.00145157
0.00127811
0.000838296
0.000836905
0.000940527
0.00111511
0.00130631
0.00147536
0.00161077
0.00171163
0.00178351
0.00183113
0.00186819
0.00190536
0.00195168
0.00201536
0.00210127
0.00219256
0.0022564
0.00228176
0.00227556
0.00225059
0.00221905
0.00217977
0.00213236
0.002075
0.00200343
0.00191497
0.00180902
0.00169041
0.00154636
0.00136904
0.000855764
0.000792622
0.000831743
0.000965734
0.00114506
0.00132462
0.0014831
0.00161053
0.00170883
0.00178191
0.00183642
0.00188973
0.00195132
0.00203049
0.002132
0.00223569
0.00230874
0.00234379
0.00234094
0.00231883
0.00228917
0.00225184
0.00220586
0.00214956
0.00207938
0.00199371
0.00189391
0.0017764
0.00162906
0.00144779
0.000920685
0.000812677
0.000788441
0.000860704
0.00100452
0.00117687
0.00134648
0.00149344
0.00161435
0.0017114
0.00178963
0.00185943
0.00193605
0.00203074
0.00214672
0.00226208
0.00234445
0.00238707
0.00239147
0.00237413
0.00234652
0.00230886
0.00226531
0.00221292
0.00214551
0.00206463
0.00197127
0.00185063
0.00169938
0.00151398
0.00104234
0.000903394
0.000820222
0.000819963
0.000907942
0.00104962
0.00121324
0.00136973
0.00150742
0.00162501
0.00172527
0.00181641
0.00190759
0.00201726
0.00214652
0.00227284
0.00236472
0.00241584
0.00242887
0.00241774
0.00239304
0.00235926
0.00231694
0.00226716
0.00220374
0.00213021
0.00203685
0.0019133
0.0017576
0.00156779
0.00122269
0.00106426
0.000937295
0.000865326
0.000874639
0.000964421
0.00109917
0.00125069
0.00139639
0.001529
0.00164794
0.00175867
0.00186779
0.00199122
0.00213255
0.00226916
0.00237071
0.00243124
0.00245395
0.00245073
0.0024305
0.00240212
0.00236414
0.00231579
0.00225943
0.00218946
0.00209315
0.00196559
0.00180462
0.0016099
0.00145934
0.00128934
0.00113317
0.00100374
0.000931716
0.000940032
0.00102513
0.0011504
0.00129117
0.00143062
0.00156297
0.00169004
0.00181569
0.00195378
0.00210615
0.00225236
0.00236367
0.00243448
0.00246764
0.00247382
0.00246029
0.00243872
0.00240878
0.00236472
0.00231277
0.00224093
0.00214138
0.00200887
0.00184172
0.00164139
0.00174514
0.00156885
0.00139303
0.00122299
0.00108161
0.00100335
0.00100725
0.00108652
0.00120382
0.00133843
0.00147661
0.00161507
0.00175422
0.00190726
0.002069
0.00222393
0.00234493
0.00242684
0.0024711
0.0024882
0.00248428
0.00247197
0.0024517
0.0024119
0.00236072
0.00228725
0.00218341
0.00204487
0.00187045
0.00166366
0.00206679
0.00188774
0.00169837
0.00150004
0.0013075
0.00115201
0.00106911
0.00107084
0.00114847
0.00126244
0.00139597
0.00153864
0.00168749
0.00185139
0.00202283
0.00218512
0.00231547
0.00240887
0.00246574
0.00249523
0.00250393
0.00250157
0.0024877
0.00245508
0.00240548
0.00232995
0.00222068
0.00207516
0.00189246
0.00167824
0.00240486
0.00222519
0.00202683
0.00180913
0.00158112
0.00136697
0.00120464
0.00112531
0.00113289
0.00121207
0.00132853
0.00146701
0.00161891
0.00178738
0.0019637
0.00213328
0.00227374
0.00237867
0.00244844
0.00249006
0.00251059
0.00251958
0.00251474
0.00249245
0.00244478
0.00236536
0.00225192
0.00209995
0.00190883
0.00168657
0.00273407
0.0025554
0.0023523
0.00212273
0.00187205
0.00161798
0.00139404
0.00123867
0.00117317
0.00119449
0.00128042
0.00140425
0.00154832
0.00171297
0.00188628
0.00205516
0.00220067
0.00231562
0.002398
0.00245488
0.00249074
0.00250844
0.0025148
0.00250365
0.00246331
0.00238636
0.00226975
0.00211607
0.00191904
0.00168955
0.003023
0.0028475
0.0026444
0.00241046
0.00214866
0.00187143
0.00160603
0.00139011
0.00125509
0.0012137
0.00124977
0.0013419
0.00146888
0.00161717
0.00177395
0.00193175
0.00207483
0.00219466
0.00228747
0.00235716
0.00240791
0.00244324
0.00246577
0.00247234
0.00244901
0.00238301
0.00227086
0.00211398
0.00191834
0.00168609
0.003234
0.00306523
0.00286832
0.00263868
0.0023771
0.00209167
0.00180349
0.00154572
0.00135299
0.00124866
0.00122818
0.0012697
0.00135819
0.00147366
0.00159818
0.00173079
0.00186142
0.00197773
0.00207694
0.00216108
0.0022313
0.00228842
0.00233458
0.00236664
0.00236996
0.00233164
0.00223669
0.00209192
0.00189524
0.001669
0.00332565
0.00317058
0.00298838
0.00277288
0.00252283
0.00224295
0.00194898
0.0016686
0.00143499
0.00127522
0.00119397
0.00117633
0.00120824
0.00127427
0.00136203
0.00146363
0.00156886
0.00167372
0.00177263
0.00186493
0.00194988
0.00202779
0.00209954
0.00215838
0.00219354
0.00219179
0.00213669
0.00201804
0.0018489
0.0016336
0.00327151
0.00314127
0.00298472
0.00279454
0.00256803
0.00230845
0.00202892
0.00175247
0.00150815
0.00132111
0.00120011
0.00113877
0.00112605
0.00115385
0.00121186
0.00128527
0.00136166
0.00144118
0.00152033
0.001599
0.00167709
0.00175289
0.00182601
0.00189227
0.00194327
0.00196709
0.00194821
0.00187247
0.00173141
0.00155413
0.00309509
0.00300376
0.00288728
0.00273817
0.00255336
0.00233709
0.00210243
0.00186898
0.00165956
0.00149319
0.00137679
0.00130816
0.00128505
0.00129884
0.00133967
0.0013908
0.00143938
0.00148775
0.00153712
0.00158452
0.00163046
0.00167551
0.00171932
0.00175928
0.00178995
0.00180273
0.00178453
0.00172143
0.00160028
0.00142643
0.00292885
0.002885
0.00281663
0.00271904
0.00259006
0.00243574
0.00226843
0.00210209
0.00195172
0.00182728
0.00173464
0.00167929
0.00165888
0.00166653
0.00169354
0.00172754
0.00175724
0.00178767
0.00181645
0.00184252
0.00186618
0.00188797
0.00190707
0.00192081
0.00192514
0.00191465
0.00187886
0.00180371
0.00167572
0.0014866
0.0028251
0.00280886
0.0027899
0.00274899
0.00268346
0.00259583
0.00249223
0.00238503
0.00228306
0.00219312
0.0021217
0.00207583
0.00205266
0.0020494
0.00205927
0.00207726
0.00209471
0.00211596
0.00213739
0.00215953
0.00218179
0.00220364
0.00222363
0.00223897
0.00224606
0.00224228
0.00221946
0.00216617
0.00207365
0.00193328
0.00278796
0.0027902
0.00279225
0.00277613
0.00274337
0.00269849
0.00264252
0.00257913
0.00251432
0.00245435
0.00240556
0.0023674
0.00234121
0.00232798
0.00232402
0.00233101
0.0023414
0.00235756
0.00237802
0.00240306
0.00243114
0.0024606
0.00248954
0.00251606
0.00253727
0.00255462
0.0025613
0.00255041
0.00252421
0.00247898
0.00019495
0.00020161
0.000198108
0.000192513
0.000185442
0.000177496
0.000169199
0.000160926
0.00015289
0.000145274
0.000138138
0.000131592
0.000125629
0.000120442
0.000116103
0.000112944
0.000111257
0.000111891
0.000115131
0.000119695
0.00012345
0.000125015
0.000123612
0.000118766
0.000110162
9.74279e-05
8.06628e-05
6.71688e-05
0.000313807
7.60984e-05
0.000821297
0.000943467
0.000947507
0.000897235
0.000831187
0.000765558
0.000706489
0.000654574
0.00060917
0.000569509
0.000533929
0.000502285
0.000472602
0.000446638
0.000423022
0.000404024
0.000389831
0.000387857
0.000396585
0.000414817
0.000436072
0.000454258
0.000458856
0.000442779
0.000405885
0.000354354
0.000298593
0.000254218
0.000329477
0.000328127
0.00130447
0.0015317
0.00158942
0.00155784
0.00148575
0.00140018
0.00131496
0.00123539
0.0011627
0.00109709
0.00103692
0.000982598
0.000931449
0.000886819
0.000847332
0.000815479
0.000791222
0.000782913
0.000784657
0.000799063
0.000819956
0.000840839
0.00084019
0.000806238
0.000742538
0.0006488
0.000541228
0.00043676
0.000410853
0.000463292
0.00164164
0.00192079
0.00201286
0.00201447
0.00195979
0.0018797
0.00179151
0.00170381
0.0016201
0.00154208
0.00146933
0.00140325
0.00134179
0.00128907
0.00124434
0.00120952
0.00118259
0.00116814
0.00115951
0.00116427
0.00117557
0.00119117
0.00118261
0.00113791
0.00105169
0.000927938
0.000782767
0.000628363
0.000527534
0.000529416
0.00184928
0.00211765
0.00226189
0.0023077
0.0022823
0.00221995
0.00214152
0.00205798
0.00197444
0.00189397
0.00181811
0.00174931
0.00168629
0.00163438
0.00159318
0.00156263
0.00153695
0.00151569
0.00149532
0.00148603
0.00148884
0.00149637
0.00148231
0.00142883
0.00132977
0.00118788
0.00101782
0.000830409
0.00067637
0.00062023
0.00197772
0.00223417
0.0023992
0.00247658
0.00248558
0.00244885
0.00238721
0.00231605
0.00224046
0.00216463
0.00209302
0.00202832
0.00197127
0.00192745
0.00189636
0.001875
0.00185188
0.00182231
0.00178977
0.00176849
0.00176089
0.00176105
0.00174229
0.00168409
0.00157908
0.00142833
0.00124443
0.00103617
0.00084677
0.000740934
0.0020648
0.00229216
0.0024568
0.00255557
0.00259489
0.00258931
0.00255512
0.00249711
0.0024322
0.00236555
0.00230494
0.0022497
0.0022048
0.00217536
0.00215934
0.00215062
0.00212938
0.00209033
0.00204595
0.00201371
0.00199745
0.00199016
0.00196734
0.00190937
0.00180269
0.00164995
0.00146094
0.00124355
0.00103045
0.000882904
0.00208754
0.00227431
0.00243874
0.00255797
0.00262734
0.00265247
0.0026452
0.00261144
0.00256557
0.00251538
0.00246353
0.00242142
0.0023937
0.00238399
0.00238688
0.0023931
0.002372
0.00232339
0.00226825
0.00222662
0.00220307
0.00218888
0.00216238
0.00210552
0.00200402
0.00185422
0.0016682
0.00144608
0.00122023
0.0010367
0.00202411
0.00218334
0.00235378
0.00249474
0.00259508
0.00265239
0.00267367
0.00266746
0.00264357
0.00261188
0.0025778
0.00255234
0.00254404
0.00255759
0.00258283
0.00260481
0.0025827
0.00252527
0.00246136
0.00241247
0.00238267
0.00236194
0.00233222
0.00227708
0.00218362
0.00204233
0.00185832
0.00163756
0.00140667
0.00119568
0.00190822
0.00204095
0.00221185
0.00237518
0.00250845
0.00259927
0.00265145
0.00267334
0.00267482
0.0026651
0.00265245
0.00264842
0.00266191
0.00269964
0.00275084
0.00278753
0.00276438
0.00269989
0.0026298
0.00257524
0.00254064
0.00251373
0.00248135
0.00242866
0.00234274
0.00220978
0.00203173
0.00181785
0.00158628
0.00135606
0.00178131
0.00187521
0.00203547
0.00221446
0.00237652
0.00250136
0.00258632
0.00263807
0.00266615
0.00268074
0.00269235
0.0027128
0.00275131
0.00281474
0.00289245
0.00294224
0.00292038
0.00285123
0.00277708
0.00271962
0.00268075
0.00264888
0.00261408
0.00256415
0.00248156
0.00235751
0.00218914
0.00198599
0.00175657
0.00151751
0.00166355
0.00170104
0.0018373
0.0020226
0.00220895
0.00236615
0.00248478
0.00256812
0.00262423
0.00266511
0.00270242
0.00274908
0.00281347
0.00290632
0.00300919
0.00307071
0.00304993
0.00297944
0.00290521
0.00284801
0.00280636
0.00277079
0.00273563
0.00268422
0.0026044
0.00248846
0.00233334
0.00214047
0.00191374
0.00166934
0.00156905
0.00153617
0.00163525
0.00181314
0.00201525
0.0022009
0.00235223
0.00246771
0.00255426
0.00262252
0.00268667
0.00276061
0.00285213
0.00297612
0.00310252
0.00317487
0.00315949
0.00309287
0.00302004
0.00296384
0.00292042
0.0028841
0.00284543
0.00279261
0.00271526
0.00260826
0.00246581
0.00227964
0.0020563
0.00180893
0.00152242
0.00141465
0.00145726
0.00160697
0.00180972
0.00201519
0.00219558
0.00234235
0.00245966
0.00255738
0.00264897
0.00275064
0.00286979
0.00302517
0.00317343
0.00325648
0.00324922
0.00319121
0.00312211
0.00306865
0.00302679
0.00298975
0.00294664
0.00289252
0.00281793
0.00272126
0.00258554
0.00240436
0.00218371
0.00193448
0.00154732
0.00137885
0.0013399
0.00143531
0.00161476
0.00182402
0.00202453
0.00219871
0.00234552
0.00247272
0.00259304
0.00272208
0.00286884
0.00305445
0.00322273
0.00331724
0.0033221
0.0032752
0.00321294
0.00316446
0.0031244
0.00308658
0.00304131
0.00298646
0.00291906
0.0028269
0.00269429
0.00251548
0.00229601
0.00204497
0.00164511
0.0014396
0.00132729
0.00134107
0.00146391
0.00165077
0.00185426
0.00204647
0.00221834
0.00237321
0.00252168
0.00267755
0.00285182
0.00306459
0.00325111
0.00335839
0.00337799
0.00334576
0.00329359
0.00325011
0.00321195
0.00317547
0.00313056
0.00308051
0.00301737
0.00292409
0.00279167
0.00261342
0.0023935
0.00214011
0.00183619
0.00161008
0.00144053
0.00136264
0.00139967
0.00152906
0.00170756
0.00189993
0.00208712
0.00226463
0.00243857
0.00261926
0.00282076
0.00305635
0.0032589
0.00338038
0.00341766
0.00340295
0.00336409
0.00332892
0.0032958
0.00325883
0.00321914
0.00317428
0.00310931
0.0030137
0.00287885
0.00269902
0.00247664
0.00221997
0.00212281
0.00188629
0.00167831
0.00152427
0.00145601
0.00149082
0.00161397
0.00177843
0.00196408
0.0021544
0.00234791
0.00255018
0.00277744
0.00302931
0.00324528
0.00338198
0.00343908
0.00344468
0.003422
0.00339706
0.00336965
0.00334268
0.00331012
0.00326358
0.00319601
0.00309646
0.00295675
0.00277311
0.00254619
0.00228504
0.00248085
0.00224126
0.00200959
0.00180036
0.0016419
0.00156789
0.00159046
0.00170359
0.00186413
0.00205124
0.0022538
0.00247407
0.0027188
0.00297987
0.00320646
0.00335838
0.00343627
0.00346435
0.00346025
0.00344746
0.00343036
0.00341349
0.00339164
0.00335014
0.0032791
0.00317388
0.00302676
0.00283592
0.00260282
0.00233596
0.0028752
0.00263584
0.00238977
0.00214422
0.00191958
0.00174932
0.00166734
0.00168519
0.00179961
0.00196315
0.00216122
0.0023892
0.00263888
0.00290186
0.00313144
0.00329732
0.00339481
0.00344681
0.00346308
0.00346198
0.00345636
0.0034493
0.00343508
0.00340216
0.00333689
0.00323276
0.00308268
0.00288615
0.00264627
0.0023731
0.00326547
0.00302741
0.00277305
0.00250535
0.00223772
0.00199678
0.00182098
0.00174336
0.00177143
0.00189353
0.00207219
0.00229396
0.00253925
0.00278077
0.0030023
0.00317507
0.00329625
0.00336626
0.00340127
0.00341695
0.00342684
0.00343444
0.00343261
0.00340858
0.00334943
0.00325324
0.003111
0.00291624
0.00267352
0.00239578
0.00361045
0.00337491
0.00311756
0.00283873
0.00254673
0.00226073
0.00201443
0.00184809
0.00178821
0.00183088
0.00196247
0.00214443
0.00236013
0.00258749
0.00279431
0.00296628
0.0031028
0.00319241
0.00324695
0.00328437
0.00331516
0.00334367
0.00336135
0.00335697
0.00331052
0.00321923
0.00308808
0.0029102
0.00267571
0.00240044
0.00387114
0.00364141
0.0033871
0.00310682
0.00280524
0.00249533
0.00220345
0.0019671
0.00182152
0.00177907
0.00183158
0.00195653
0.00212965
0.00231915
0.00249861
0.00266363
0.002809
0.00290961
0.00298565
0.0030456
0.00310229
0.00315541
0.00319797
0.00321997
0.00320275
0.00313032
0.00300845
0.00283852
0.00263018
0.00237477
0.00401523
0.00379759
0.00355419
0.00328228
0.00298393
0.00266757
0.00235298
0.00207136
0.00185786
0.00173474
0.00170181
0.00174928
0.00186154
0.00201494
0.00216832
0.0023228
0.0024586
0.0025652
0.00265332
0.0027304
0.0028073
0.0028791
0.00294278
0.00298932
0.00300292
0.00296538
0.00286716
0.00272005
0.00252029
0.00228873
0.00402558
0.0038302
0.0036088
0.00335735
0.00307618
0.00277112
0.0024581
0.00216329
0.0019182
0.00174631
0.00165295
0.00163796
0.00169732
0.00180914
0.00194436
0.00207746
0.0021904
0.00228619
0.00236852
0.00244718
0.00252151
0.00259237
0.002658
0.0027111
0.00273898
0.00272605
0.00265906
0.00252881
0.00236128
0.00216412
0.00391837
0.00375976
0.00357622
0.00336184
0.00311616
0.00284433
0.00256173
0.00229162
0.00206093
0.00188723
0.00177481
0.00173538
0.001763
0.00184064
0.00195007
0.00205247
0.0021351
0.00220515
0.00226946
0.00232738
0.00237986
0.00242886
0.00247338
0.00250827
0.002524