/*--------------------------------*- C++ -*----------------------------------*\
| =========                 |                                                 |
| \\      /  F ield         | OpenFOAM: The Open Source CFD Toolbox           |
|  \\    /   O peration     | Version:  5.0                                   |
|   \\  /    A nd           | Web:      www.OpenFOAM.org                      |
|    \\/     M anipulation  |                                                 |
\*---------------------------------------------------------------------------*/
FoamFile
{
    version     2.0;
    format      ascii;
    class       volScalarField;
    location    "1850/air";
    object      alphat;
}
// * * * * * * * * * * * * * * * * * * * * * * * * * * * * * * * * * * * * * //

dimensions      [1 -1 -1 0 0 0 0];

internalField   nonuniform List<scalar> 
243000
(
0.000169899
0.000172719
0.000169182
0.00016385
0.00015735
0.000150277
0.00014296
0.000135653
0.000128539
0.000121792
0.000115507
0.000109744
0.000104473
9.97291e-05
9.55068e-05
9.18867e-05
8.89313e-05
8.6823e-05
8.70501e-05
8.57947e-05
0.000394166
8.83603e-05
8.60094e-05
8.38884e-05
0.0003718
0.000361462
0.000359282
0.000335847
0.000316694
8.80837e-05
0.00074036
0.000783387
0.000792353
0.000790416
0.000781607
0.000768079
0.000751251
0.000732197
0.000711593
0.000690064
0.000667966
0.000645637
0.000623107
0.000600934
0.000579495
0.000559395
0.000541042
0.000525766
0.000510382
0.000507518
0.000501513
0.000487729
0.000480327
0.000464377
0.000444069
0.000418186
0.000385716
0.000350313
0.000326993
0.000363229
0.000798613
0.000842105
0.000854023
0.00085312
0.00084444
0.000830534
0.000813012
0.000793001
0.000771252
0.000748487
0.000725084
0.000701448
0.000677701
0.000654515
0.000632346
0.000611855
0.000593419
0.000578337
0.000566691
0.000558633
0.000551685
0.000542977
0.00053117
0.000513814
0.00049081
0.000461818
0.000427413
0.000386453
0.00035389
0.000368332
0.000824867
0.000869906
0.000885255
0.0008874
0.000880997
0.00086883
0.000852552
0.000833341
0.000812011
0.000789352
0.000765846
0.000742018
0.000718078
0.000694799
0.00067273
0.000652602
0.000634767
0.000620425
0.000609453
0.000601117
0.000593544
0.00058462
0.000572111
0.000554313
0.000530616
0.000500632
0.000464612
0.000421762
0.000384948
0.000373846
0.000829849
0.000874859
0.000896327
0.000903023
0.000900161
0.000890897
0.000876917
0.000859489
0.000839488
0.000817793
0.000794979
0.000771686
0.000748231
0.00072549
0.000704066
0.000684776
0.000667934
0.000654585
0.000644249
0.000635932
0.000627878
0.000618316
0.000605246
0.000587126
0.000563246
0.000533135
0.000496855
0.000453676
0.000415047
0.000389407
0.000820627
0.00086619
0.000893024
0.000905226
0.000906873
0.0009012
0.000890176
0.000875141
0.000857064
0.000836922
0.000815339
0.000793084
0.000770577
0.000748816
0.000728375
0.000710237
0.000694614
0.000682372
0.000672706
0.000664461
0.000655998
0.000645801
0.000632199
0.000613838
0.000590007
0.000560179
0.00052428
0.00048143
0.000442028
0.000409507
0.000799712
0.000848102
0.000880241
0.000897746
0.000904271
0.000902804
0.000895002
0.000882648
0.000866952
0.000848791
0.000828839
0.000807984
0.000786753
0.000766263
0.000747052
0.000730256
0.000715981
0.000704871
0.000695878
0.000687743
0.00067895
0.0006682
0.000654134
0.000635602
0.000611947
0.000582588
0.000547342
0.000505219
0.000465563
0.000429806
0.000768995
0.000822152
0.00085968
0.000882718
0.000894383
0.000897346
0.000893411
0.000884185
0.000870809
0.000854829
0.000836825
0.000817653
0.000797942
0.000778894
0.000761095
0.000745753
0.000732887
0.000722893
0.000714555
0.000706573
0.000697538
0.000686353
0.000671913
0.000653282
0.000629869
0.000601064
0.000566637
0.000525657
0.000486112
0.000448054
0.000730959
0.000789961
0.000833123
0.000861769
0.000878729
0.000886242
0.000886338
0.000880537
0.000870259
0.000856558
0.000840367
0.000823048
0.000805019
0.000787545
0.000771265
0.000757429
0.000745979
0.000737058
0.000729358
0.000721569
0.000712394
0.000700898
0.000686197
0.000667541
0.000644416
0.000616222
0.000582625
0.000542873
0.000503631
0.000464101
0.000693329
0.000755488
0.000802833
0.000836485
0.000858568
0.00087071
0.00087493
0.000872777
0.000865579
0.000854524
0.000840703
0.000825029
0.000808698
0.000792872
0.00077816
0.000765837
0.000755766
0.000747863
0.000740775
0.000733222
0.000724004
0.00071233
0.000697491
0.000678897
0.000656109
0.000628589
0.000595573
0.000557327
0.00051863
0.000478306
0.000657998
0.000720259
0.000771701
0.000809534
0.000835318
0.000851818
0.000860108
0.000861663
0.000857682
0.000849367
0.00083782
0.000824284
0.00080967
0.000795409
0.000782269
0.00077142
0.000762659
0.000755709
0.00074921
0.00074193
0.000732771
0.000721049
0.0007062
0.000687767
0.000665423
0.000638341
0.000605897
0.000569338
0.00053147
0.000490881
0.000629113
0.000684784
0.000739171
0.000781473
0.000811442
0.000831221
0.00084283
0.000847867
0.000847142
0.000841637
0.000832499
0.000820997
0.000808213
0.000795657
0.000783999
0.000774548
0.000766998
0.000760942
0.000755001
0.00074803
0.000739023
0.000727387
0.000712663
0.000694537
0.000672513
0.00064585
0.000613946
0.000579212
0.000542371
0.000501924
0.000612864
0.000651479
0.000705297
0.000751746
0.000786334
0.000809962
0.000824641
0.000832225
0.000834498
0.000831797
0.000825107
0.000815718
0.000804761
0.000793837
0.000783665
0.000775529
0.000769094
0.000763844
0.000758438
0.000751811
0.000743044
0.000731644
0.000717184
0.000699306
0.000677623
0.000651382
0.000620431
0.000587356
0.000551587
0.000511509
0.000615531
0.000626188
0.000671637
0.000720262
0.000759524
0.000787551
0.0008058
0.000816187
0.000820571
0.000820345
0.000816028
0.000808762
0.000799631
0.000790303
0.000781551
0.000774632
0.000769166
0.000764669
0.000759782
0.000753562
0.000745132
0.000733975
0.000719777
0.000702233
0.000680933
0.000655144
0.000625765
0.000594111
0.000559359
0.000519758
0.000639435
0.000618064
0.000642975
0.000688171
0.000730918
0.000763601
0.000785936
0.000799548
0.00080638
0.000808022
0.000805693
0.000800431
0.000793103
0.000785313
0.000777902
0.000772099
0.00076752
0.000763676
0.000759249
0.000753339
0.0007452
0.000734379
0.000720546
0.000703419
0.000682585
0.000657362
0.00062981
0.000599573
0.00056582
0.000526774
0.00067955
0.000635909
0.000628657
0.000659358
0.000701424
0.000738036
0.00076475
0.000782031
0.000791685
0.000795455
0.000794763
0.000791093
0.000785427
0.000779102
0.000772942
0.00076815
0.000764359
0.000761099
0.000757126
0.000751616
0.000743823
0.000733325
0.000719834
0.000703085
0.000682702
0.000658914
0.000632843
0.000603891
0.000571082
0.000532661
0.000728428
0.000677583
0.000640325
0.000642331
0.000674286
0.000711619
0.000742214
0.000763438
0.000776285
0.00078248
0.000783641
0.00078128
0.000776907
0.000771902
0.00076688
0.000762996
0.000759906
0.000757164
0.000753619
0.000748511
0.000741155
0.000731061
0.000717959
0.000701629
0.000681831
0.000659641
0.000634945
0.000607168
0.000575236
0.000537481
0.000780306
0.000731347
0.000679392
0.000648484
0.000656707
0.000687014
0.000718999
0.000743793
0.000760051
0.00076896
0.000772184
0.000771352
0.000768004
0.000763977
0.000759932
0.000756845
0.000754366
0.000752088
0.000748956
0.000744253
0.000737344
0.000727753
0.000715104
0.000699274
0.000680645
0.000659702
0.000636229
0.000609505
0.000578366
0.000541312
0.000828867
0.000785301
0.000732911
0.000681915
0.000658066
0.000669829
0.000697174
0.00072366
0.000743042
0.000754818
0.0007603
0.000761183
0.000759047
0.000755693
0.00075235
0.000749916
0.000747954
0.000746086
0.000743355
0.000739067
0.000732613
0.000723557
0.000711476
0.000696532
0.00067911
0.000659275
0.000636835
0.000611018
0.000580562
0.000544191
0.000875631
0.000836781
0.000788921
0.000732851
0.000684534
0.000667602
0.00068093
0.0007046
0.000725714
0.000740126
0.00074796
0.000750684
0.000749933
0.000747441
0.000744537
0.000742477
0.000740905
0.00073939
0.000737041
0.000733176
0.000727195
0.000718706
0.000707478
0.00069364
0.000677303
0.000658461
0.000636871
0.000611827
0.000581931
0.000546204
0.000920496
0.000885303
0.000842173
0.000788657
0.000729844
0.000686512
0.000676075
0.000689633
0.00070921
0.000725245
0.00073524
0.00073985
0.000740595
0.000739131
0.000736835
0.000734955
0.000733517
0.000732262
0.000730256
0.000726812
0.000721351
0.000713687
0.000703478
0.000690666
0.000675319
0.000657378
0.000636536
0.00061209
0.000582607
0.000547475
0.000963215
0.000930768
0.000891367
0.00084211
0.000782557
0.000723614
0.000687639
0.000682849
0.000695612
0.000711
0.000722427
0.000728771
0.000731029
0.000730726
0.000729193
0.000727667
0.000726416
0.000725271
0.000723539
0.000720551
0.000715744
0.000708857
0.000699569
0.000687728
0.000673312
0.000656192
0.000636005
0.000612011
0.000582766
0.000548151
0.00100413
0.000973494
0.000936684
0.000891095
0.000834487
0.000770294
0.000715194
0.000688127
0.000687718
0.00069882
0.000710143
0.000717711
0.000721365
0.000722266
0.000721634
0.000720626
0.00071967
0.00071871
0.000717247
0.000714683
0.00071048
0.000704336
0.000695916
0.000685014
0.000671499
0.000655159
0.000635543
0.000611862
0.000582668
0.000548444
0.00104233
0.00101295
0.000978022
0.000935323
0.000882271
0.000818583
0.000753409
0.000706388
0.000688406
0.000690734
0.000699511
0.000707267
0.000711971
0.000714017
0.000714377
0.000714043
0.000713502
0.000712813
0.000711639
0.000709478
0.000705842
0.000700395
0.000692806
0.000682807
0.000670166
0.000654571
0.000635464
0.000611991
0.000582629
0.000548663
0.00107698
0.0010488
0.00101552
0.000975184
0.000925453
0.000864642
0.000796489
0.000735789
0.000699711
0.000689292
0.000692473
0.000698809
0.000703894
0.000706908
0.000708314
0.000708825
0.000708852
0.000708534
0.000707676
0.000705887
0.000702732
0.000697875
0.000690981
0.000681718
0.000669837
0.000654965
0.00063641
0.000613073
0.000583305
0.000549427
0.00110947
0.00108242
0.00105065
0.0010125
0.000965902
0.000908817
0.000841979
0.000774563
0.000723665
0.000698673
0.00069309
0.000695965
0.000700554
0.000704344
0.000706964
0.000708586
0.000709403
0.000709569
0.000708985
0.000707381
0.000704436
0.000699868
0.00069339
0.000684669
0.000673344
0.000658961
0.000640652
0.000617056
0.000586183
0.000551946
0.0011431
0.00111761
0.00108772
0.00105203
0.00100888
0.00095642
0.000893985
0.000826431
0.000767044
0.000729074
0.000713232
0.000710896
0.000714239
0.000718963
0.000723369
0.000726626
0.000728479
0.000729053
0.000728329
0.000726199
0.000722557
0.000717301
0.000710263
0.000701155
0.000689549
0.000674847
0.000655993
0.000631109
0.000597858
0.000561233
0.00118644
0.00116347
0.0011366
0.001105
0.00106766
0.00102322
0.00097058
0.000911638
0.000854728
0.000812361
0.000790193
0.000784123
0.000787073
0.000793764
0.000800781
0.000805917
0.00080833
0.000808268
0.000805771
0.000801063
0.000794393
0.000786034
0.000776072
0.000764284
0.000750014
0.000732595
0.000710899
0.000682395
0.00064365
0.000602528
0.00127203
0.00125459
0.00123571
0.00121522
0.00119253
0.00116657
0.00113588
0.00110069
0.00106413
0.00103502
0.00101915
0.00101571
0.00102022
0.00102889
0.00103708
0.00104213
0.00104297
0.00104035
0.00103457
0.00102597
0.00101519
0.00100277
0.000989127
0.000973939
0.000955348
0.000933445
0.00090836
0.000876522
0.00083466
0.000790089
0.00155478
0.00155108
0.00155202
0.00155265
0.00155194
0.00154913
0.00154321
0.00153454
0.00152091
0.00150864
0.00150055
0.00149673
0.00149617
0.00149972
0.0015031
0.00150515
0.0015043
0.00150317
0.00150145
0.00149976
0.00149791
0.0014964
0.00149509
0.00149341
0.00148518
0.00147389
0.00146317
0.00144664
0.0014241
0.00139745
0.000206009
0.000213109
0.000210245
0.000204255
0.000196493
0.000187795
0.000178719
0.00016967
0.000160877
0.000152525
0.000144683
0.000137448
0.000130825
0.000124946
0.000119834
0.000115655
0.000112489
0.000110624
0.0001101
0.000110744
0.00011144
0.000111123
0.000109159
0.000104727
9.76144e-05
8.7691e-05
0.000364396
0.000346025
8.59131e-05
9.2132e-05
0.000798495
0.000900584
0.00087172
0.000811276
0.000743938
0.00068031
0.000623651
0.000573947
0.000530347
0.000492476
0.000459268
0.00043043
0.000404566
0.000382162
0.000362332
0.000345343
0.000329693
0.000317651
0.000309416
0.000306188
0.000307341
0.000310439
0.000310009
0.000301347
0.000283884
0.000257073
0.000281088
0.00033855
0.000371894
0.000374329
0.00126853
0.00146608
0.00147691
0.00141518
0.00132741
0.00123441
0.00114621
0.00106554
0.000992772
0.000928279
0.000870822
0.000820327
0.00077462
0.000734793
0.00069975
0.000669112
0.000639529
0.000614352
0.000592484
0.000576531
0.000567904
0.000564254
0.000557315
0.000539983
0.000507275
0.000458819
0.000416646
0.000398077
0.00043906
0.000473776
0.00157424
0.00183946
0.00189044
0.00185342
0.00177427
0.00167836
0.00158009
0.00148577
0.00139765
0.00131746
0.00124458
0.00117965
0.00112073
0.00106908
0.00102422
0.000985013
0.000946483
0.000911605
0.000877584
0.000848017
0.000826203
0.000811362
0.000794616
0.000765893
0.000719348
0.00065323
0.000576989
0.000503075
0.000485922
0.000498183
0.00173075
0.00201156
0.00212656
0.00214025
0.00208792
0.00200562
0.00191162
0.00181682
0.00172433
0.00163799
0.00155787
0.00148567
0.00141974
0.00136207
0.00131287
0.00127007
0.00122707
0.00118609
0.00114257
0.00110116
0.00106671
0.00104005
0.00101235
0.000973041
0.000915677
0.000837206
0.000741943
0.000634337
0.000565502
0.00053898
0.00181921
0.00210154
0.00225719
0.00230906
0.0022923
0.00223281
0.00215127
0.00206615
0.00197684
0.0018923
0.00181162
0.00173805
0.00167071
0.00161209
0.0015629
0.00152042
0.00147647
0.00143196
0.00138133
0.00133028
0.00128482
0.00124718
0.00120907
0.00116102
0.00109564
0.00100894
0.000903221
0.000778338
0.000674486
0.000613078
0.00185394
0.00212978
0.00230433
0.00238949
0.00240742
0.00237936
0.00232322
0.00224574
0.00216255
0.00208764
0.00201152
0.00194147
0.00187736
0.00182216
0.00177607
0.00173727
0.00169479
0.00164861
0.00159302
0.00153437
0.00147984
0.00143189
0.00138532
0.00133047
0.00125965
0.00116811
0.0010566
0.000924101
0.000798541
0.000706489
0.00184124
0.00209043
0.0022801
0.002397
0.00245054
0.0024534
0.00242304
0.00236736
0.00230494
0.00223465
0.00216343
0.00210161
0.00204402
0.00199547
0.00195529
0.00192243
0.00188338
0.00183705
0.00177831
0.00171414
0.00165217
0.00159688
0.001543
0.00148261
0.00140831
0.00131448
0.00120084
0.00106555
0.000926965
0.000808614
0.00174922
0.00198516
0.00219316
0.00234254
0.0024331
0.0024682
0.00246629
0.0024379
0.00239387
0.00233879
0.00228235
0.00222492
0.00217534
0.00213545
0.00210354
0.00207823
0.002044
0.00199885
0.0019385
0.00187101
0.00180518
0.00174421
0.00168509
0.00161996
0.00154299
0.00144857
0.00133566
0.00120046
0.00105349
0.000912064
0.0015989
0.00182116
0.00205179
0.00223438
0.00236437
0.00243399
0.00246421
0.00246394
0.00244291
0.002406
0.00236295
0.00231713
0.00227608
0.00224548
0.00222363
0.00220678
0.00217849
0.00213562
0.00207506
0.00200616
0.00193676
0.00187233
0.00180973
0.00174321
0.00166488
0.00157201
0.00146041
0.00132697
0.00117511
0.0010124
0.00145162
0.00162908
0.00185845
0.00207781
0.00225294
0.00235839
0.00242359
0.00245292
0.00245645
0.00243991
0.00241245
0.00238018
0.00234964
0.00233049
0.00231832
0.00231015
0.00228865
0.00224893
0.00218964
0.00212086
0.00205007
0.00198268
0.00191883
0.00185253
0.00177714
0.00168376
0.00157347
0.00144141
0.00128535
0.0011066
0.0013307
0.0014423
0.00164522
0.00187881
0.00208941
0.00224527
0.00234961
0.00241024
0.00243908
0.0024442
0.00243438
0.0024172
0.00239954
0.00239108
0.00238964
0.00239047
0.002376
0.00234033
0.00228361
0.00221638
0.00214613
0.00207886
0.00201529
0.00194921
0.00187425
0.00178245
0.00167689
0.00154422
0.00138317
0.00119247
0.00124714
0.00128626
0.00144093
0.00166361
0.00189357
0.00208994
0.00223905
0.00233999
0.00239486
0.00242251
0.00243182
0.00243113
0.00242742
0.00243094
0.0024399
0.00244957
0.00244228
0.00241112
0.00235806
0.00229421
0.00222656
0.0021601
0.00209542
0.00203045
0.00195697
0.00186901
0.00176774
0.00163352
0.00146785
0.00126763
0.0012307
0.00118241
0.00127186
0.00145753
0.00168593
0.00190843
0.00209432
0.00223365
0.00232632
0.00237837
0.00240763
0.00242448
0.00243561
0.00245161
0.00247101
0.00248912
0.0024892
0.00246345
0.00241444
0.00235407
0.0022862
0.00221908
0.00215579
0.00209534
0.00202548
0.00194387
0.00184363
0.00170846
0.00153874
0.00133085
0.00127074
0.00115862
0.00116755
0.00129076
0.00148978
0.00171804
0.00192844
0.00209935
0.00222657
0.0023128
0.00236511
0.00239941
0.00242618
0.00245506
0.00248419
0.00251072
0.00251842
0.00249918
0.0024551
0.00239936
0.00233614
0.00226901
0.00220514
0.00214381
0.00208035
0.00200783
0.00190624
0.00176947
0.00159593
0.00138165
0.00137371
0.00120892
0.00113778
0.00118858
0.00133248
0.00153871
0.00175585
0.00194826
0.00210411
0.00222144
0.00230357
0.00235861
0.00240104
0.00244263
0.00248122
0.00251605
0.00253154
0.00251975
0.00248156
0.00243138
0.00237288
0.00231102
0.00224747
0.00218626
0.002128
0.00205738
0.00195553
0.00181712
0.00163993
0.00142022
0.00154744
0.00134479
0.00120574
0.00116233
0.00123936
0.00139255
0.00159315
0.00179288
0.0019684
0.0021114
0.00222071
0.00230183
0.00236212
0.0024161
0.00246399
0.0025069
0.00253026
0.00252665
0.00249535
0.00245147
0.00239867
0.0023423
0.00228373
0.00222552
0.00216858
0.00209601
0.00199328
0.00185264
0.00167178
0.00144724
0.00178837
0.00156178
0.00137085
0.00124541
0.00121746
0.00130503
0.00146036
0.00164771
0.0018302
0.00199077
0.00212247
0.00222703
0.00230952
0.00237726
0.00243448
0.00248525
0.00251644
0.00252144
0.0024984
0.00246143
0.00241556
0.00236562
0.00231562
0.00226186
0.00220163
0.00212555
0.00202055
0.0018773
0.00169276
0.00146395
0.00208644
0.00184644
0.00162066
0.00142891
0.00130866
0.00129058
0.00138009
0.00152968
0.00170192
0.00186879
0.00201573
0.00213924
0.00224136
0.00232743
0.00239507
0.00245332
0.00249229
0.00250634
0.00249291
0.00246386
0.0024267
0.0023853
0.00234319
0.00229253
0.00222871
0.00214775
0.00203919
0.00189285
0.0017044
0.00147174
0.00242643
0.00218001
0.00193215
0.00169369
0.00149553
0.00137907
0.00136753
0.00145691
0.00159781
0.00175595
0.00190828
0.00204423
0.00216173
0.00226317
0.00234556
0.00241324
0.00246022
0.00248372
0.00248152
0.00246206
0.00243416
0.00240099
0.00236472
0.00231586
0.00224973
0.00216411
0.00205179
0.00190155
0.00170859
0.00147209
0.00278804
0.00253982
0.00227855
0.00200944
0.0017546
0.00155335
0.00144529
0.00144275
0.00153159
0.00166361
0.00180847
0.0019481
0.00207461
0.00218687
0.00228108
0.00235981
0.00241687
0.00245042
0.00245969
0.00245073
0.00243239
0.00240695
0.00237645
0.00232849
0.00226295
0.00217685
0.0020609
0.0019059
0.00170751
0.00146637
0.00314464
0.00289797
0.00263
0.00234281
0.00205132
0.00178759
0.00159447
0.0015007
0.00151158
0.00160014
0.00172368
0.00185557
0.00198217
0.00209788
0.00219737
0.00228159
0.00234582
0.00238845
0.00240941
0.00241294
0.00240559
0.00238997
0.00236538
0.00232638
0.00226664
0.0021801
0.00206258
0.00190542
0.00170227
0.00145607
0.00346231
0.00322058
0.00295276
0.0026587
0.0023481
0.0020452
0.00178845
0.00161378
0.00154489
0.00156899
0.00165321
0.00176461
0.00187879
0.00198597
0.00207869
0.0021586
0.0022224
0.00226924
0.00230033
0.00231805
0.00232702
0.00232792
0.0023197
0.00229673
0.00225137
0.00217306
0.00205394
0.00189424
0.00169113
0.00144149
0.00369844
0.00346727
0.00320829
0.00291921
0.00260572
0.00228499
0.00198817
0.00175122
0.00160804
0.00156243
0.00158906
0.00165829
0.00174149
0.00182207
0.0018922
0.00195421
0.00200662
0.00205245
0.0020908
0.00212402
0.00215321
0.00217733
0.00219382
0.00219713
0.0021786
0.00212651
0.00202504
0.00187127
0.00166697
0.00142021
0.00380456
0.0035933
0.00335468
0.003084
0.00278329
0.00246369
0.00214856
0.0018702
0.0016653
0.00154897
0.00150838
0.00151588
0.00154949
0.00158926
0.00162933
0.0016686
0.00170639
0.00174517
0.00178532
0.00182785
0.00187149
0.00191564
0.00195741
0.00199108
0.00200774
0.00199492
0.0019358
0.00181127
0.00162644
0.00138779
0.00374284
0.00356573
0.00336174
0.00312423
0.00285215
0.00255226
0.00224242
0.00195097
0.00171243
0.00154662
0.00145098
0.00140622
0.00140042
0.00141555
0.00144343
0.00147498
0.00150458
0.00153373
0.0015651
0.00159712
0.00163124
0.00166852
0.00170819
0.00174681
0.00177761
0.00178983
0.0017674
0.00169017
0.00153769
0.00134094
0.00353122
0.00340582
0.00325428
0.00306863
0.0028463
0.0025933
0.00232581
0.00206979
0.00185263
0.00169173
0.00158638
0.00153193
0.00152099
0.00153771
0.00157104
0.00160545
0.00163169
0.00165313
0.00167019
0.00168234
0.00169158
0.00170011
0.00170882
0.00171647
0.00171913
0.00170941
0.00167427
0.00159617
0.00145298
0.00126564
0.00333052
0.00326797
0.00317926
0.00305811
0.00290289
0.00272167
0.00252963
0.00234496
0.00218482
0.00206008
0.00197508
0.00193358
0.0019272
0.00194508
0.00197637
0.00200765
0.00202997
0.00204832
0.0020598
0.00206535
0.0020659
0.00206275
0.00205608
0.00204378
0.00202183
0.00198384
0.00191766
0.0018039
0.00162314
0.00139134
0.00323816
0.00321608
0.0031874
0.00313441
0.00305286
0.00294932
0.00282967
0.00270929
0.0025982
0.00250533
0.00243886
0.00240113
0.00238733
0.00239207
0.00240641
0.0024244
0.00243916
0.00245446
0.00246752
0.00247974
0.00249122
0.00250162
0.00251012
0.00251303
0.00250623
0.00248458
0.00243718
0.00234663
0.00220029
0.00201447
0.00323154
0.00323094
0.00323007
0.00320978
0.00316725
0.00311266
0.00304591
0.00297298
0.00290011
0.00283883
0.00278784
0.00275086
0.00272769
0.00271789
0.00271568
0.00272207
0.00273114
0.00274493
0.00276261
0.00278505
0.00281134
0.00284042
0.00286919
0.00289579
0.00291741
0.00293267
0.0029333
0.00291072
0.00287068
0.00281318
0.000237083
0.000244297
0.000239282
0.000231997
0.000223082
0.000213208
0.00020295
0.000192738
0.000182823
0.000173404
0.000164547
0.000156366
0.000148839
0.000142144
0.000136317
0.000131614
0.000128211
0.00012692
0.000128255
0.000131229
0.000133745
0.000134182
0.000131552
0.000125215
0.000114704
9.94962e-05
7.83189e-05
0.000354758
8.7382e-05
9.38967e-05
0.00102726
0.0011776
0.00118171
0.00111696
0.00103263
0.000949459
0.000873721
0.000807135
0.000748372
0.000696824
0.000650538
0.000609213
0.000570294
0.000535221
0.000502053
0.000471678
0.000442084
0.000422462
0.000415191
0.000421231
0.000435626
0.000450396
0.000453103
0.000434986
0.000395944
0.000342436
0.000280666
0.000339291
0.000322873
0.000372205
0.0016488
0.00193695
0.0020071
0.00196076
0.00186413
0.00175155
0.00163866
0.0015329
0.00143554
0.00134734
0.00126627
0.00119246
0.00112225
0.00105827
0.000998546
0.000942404
0.000885433
0.000841852
0.00081305
0.000803657
0.000811044
0.000824421
0.000819249
0.000785452
0.000718555
0.000621004
0.00050741
0.000441209
0.000438744
0.000519049
0.00210886
0.00245309
0.00257109
0.00256158
0.00248087
0.00237028
0.0022486
0.00212749
0.00201121
0.00190262
0.0018007
0.00170658
0.00161695
0.00153473
0.00145895
0.00138736
0.00131289
0.00124961
0.00119947
0.0011705
0.00116252
0.0011647
0.00115166
0.00110486
0.00101638
0.000888754
0.000735538
0.000590508
0.000529436
0.000569106
0.00241675
0.00276951
0.00293438
0.00296851
0.00291524
0.00282191
0.00270726
0.0025864
0.00246485
0.0023484
0.00223698
0.00213313
0.00203364
0.00194264
0.00186004
0.00178126
0.00169616
0.00161667
0.00154719
0.00149886
0.00147496
0.00146461
0.00144197
0.00138594
0.00128543
0.00114043
0.00096253
0.000772099
0.000648995
0.000631215
0.00260331
0.00293829
0.00313568
0.00321424
0.00320548
0.00313912
0.00304014
0.00293065
0.00281258
0.00269814
0.00258578
0.00248034
0.0023792
0.00228739
0.00220462
0.00212468
0.00203302
0.00193985
0.0018529
0.00178759
0.00174806
0.0017256
0.0016951
0.00163284
0.00152714
0.00137468
0.00118443
0.000969239
0.000800741
0.000731429
0.00274179
0.00305236
0.00325316
0.00335749
0.00338244
0.00335131
0.00327974
0.0031801
0.00306919
0.00296615
0.00285914
0.00275881
0.00266274
0.00257674
0.00249861
0.00242197
0.00232622
0.00222139
0.0021195
0.00203919
0.00198583
0.00195189
0.00191471
0.00185081
0.00174409
0.00159128
0.00139807
0.00117202
0.000973561
0.000861668
0.00283625
0.00308782
0.00328285
0.00340846
0.00346624
0.00346866
0.00342813
0.00335442
0.00326982
0.00317064
0.00306666
0.00297835
0.00289178
0.00281654
0.00274775
0.00267731
0.00257923
0.00246472
0.0023505
0.0022575
0.00219238
0.00214795
0.00210472
0.00204139
0.00193857
0.00179098
0.00160244
0.00137607
0.00115671
0.00100829
0.00282409
0.00303997
0.00323245
0.0033801
0.00347122
0.00350833
0.00350164
0.00345822
0.00339487
0.00331577
0.00323496
0.00314928
0.00307318
0.00301269
0.00295681
0.00289431
0.00279549
0.00267329
0.00254977
0.00244657
0.00237127
0.00231777
0.00226963
0.00220755
0.0021144
0.0019738
0.00179037
0.00156958
0.00134243
0.0011598
0.00272767
0.00291623
0.00311074
0.00328363
0.00340909
0.00348305
0.00351111
0.00350149
0.00346456
0.00340891
0.00334572
0.00327706
0.00321766
0.00317034
0.00312972
0.00307606
0.00297789
0.00285062
0.00272007
0.0026101
0.00252699
0.00246512
0.0024139
0.00235459
0.00226759
0.00213556
0.00196219
0.00175026
0.00152065
0.00130967
0.00260358
0.00275294
0.0029384
0.00312865
0.00328907
0.00340218
0.0034679
0.00349202
0.00348591
0.00345652
0.00341496
0.00336736
0.0033244
0.00329632
0.00326982
0.00322529
0.00312933
0.00299992
0.00286571
0.00275187
0.00266312
0.00259526
0.0025427
0.00248287
0.00239958
0.00227901
0.00211907
0.0019167
0.00168861
0.00145871
0.00247784
0.0025654
0.00272851
0.00292847
0.00311985
0.0032732
0.00337935
0.00343915
0.00346471
0.0034645
0.00344756
0.00342297
0.0034004
0.00339083
0.00337964
0.00334469
0.00325265
0.00312392
0.00298974
0.00287444
0.00278309
0.00271361
0.00265481
0.00259367
0.00251378
0.00240353
0.00225732
0.00206476
0.0018399
0.00159859
0.00236981
0.00237183
0.00249911
0.00269642
0.0029111
0.00310185
0.00324887
0.00334863
0.00340836
0.00343796
0.00344782
0.00344803
0.0034478
0.00345791
0.00346234
0.00343686
0.00335075
0.00322484
0.00309494
0.00298164
0.00288718
0.00281143
0.00274891
0.00268876
0.00261297
0.00251581
0.00237864
0.00219451
0.00197279
0.00172332
0.00228591
0.00220414
0.00227821
0.00245335
0.00267687
0.00289731
0.00308296
0.00322273
0.0033198
0.00338266
0.00342028
0.00344618
0.00346957
0.00349918
0.00351951
0.00350403
0.00342679
0.00330601
0.00317992
0.00306711
0.00297096
0.00289263
0.0028273
0.00277
0.00270062
0.00261329
0.00248513
0.00230679
0.00208713
0.00183131
0.00228755
0.00210943
0.00210445
0.00222972
0.00243887
0.0026736
0.00289039
0.00306759
0.00320207
0.00329954
0.00336867
0.00342075
0.00346787
0.00351673
0.00355347
0.00354876
0.00348325
0.00337083
0.00325314
0.00314572
0.00304949
0.00296899
0.00290234
0.00284298
0.00278117
0.00269711
0.00257472
0.00240147
0.00218291
0.00192168
0.00236228
0.00212959
0.00202013
0.00206514
0.00222843
0.00245218
0.00268463
0.00289178
0.0030609
0.00319267
0.00329385
0.00337449
0.00344515
0.00351292
0.00356573
0.00357325
0.00352194
0.00342182
0.00331346
0.00321318
0.00312197
0.003042
0.00297574
0.00291462
0.00285281
0.00276914
0.00264915
0.0024799
0.00226077
0.00199436
0.00252383
0.00224772
0.0020587
0.0020029
0.00208655
0.00226331
0.00248592
0.00270796
0.00290415
0.00306703
0.0031992
0.00330834
0.00340334
0.00348936
0.00355772
0.00357901
0.003544
0.00345969
0.00336242
0.00327045
0.00318647
0.00311203
0.00304656
0.002982
0.00291591
0.00283014
0.00270964
0.00254196
0.00232115
0.00204965
0.00279217
0.00248677
0.00223272
0.00207444
0.00203984
0.00214284
0.00232119
0.00253387
0.00274278
0.00292919
0.00308866
0.00322439
0.00334264
0.00344657
0.00352983
0.00356593
0.00354876
0.00348357
0.00339934
0.00331798
0.00324305
0.00317569
0.00311022
0.0030415
0.00296984
0.00288033
0.00275714
0.00258789
0.00236483
0.00208829
0.00314802
0.00282604
0.0025266
0.00228316
0.00213675
0.00211495
0.00222166
0.00239133
0.00259076
0.00278745
0.00296665
0.00312423
0.00326214
0.00338341
0.00347903
0.00353
0.00353126
0.00348859
0.00341968
0.00335176
0.00328619
0.00322501
0.00315946
0.00308879
0.00301295
0.00291944
0.00279225
0.00261943
0.00239313
0.0021114
0.00355515
0.00322603
0.00289835
0.00259433
0.00235162
0.0022123
0.0021994
0.00230193
0.00246304
0.00265068
0.00283719
0.00300754
0.00315955
0.00329207
0.0033955
0.00345862
0.00347786
0.00345847
0.00340931
0.00335573
0.00330133
0.00324433
0.00318458
0.00312134
0.00304565
0.00294855
0.00281617
0.00263832
0.00240709
0.00212029
0.00396964
0.00363924
0.00329612
0.00295415
0.0026425
0.00240253
0.00227442
0.00227085
0.00236836
0.0025267
0.00270128
0.00286944
0.00302395
0.00315779
0.0032596
0.00332857
0.00336363
0.00336596
0.0033407
0.00330623
0.00326879
0.00322886
0.00318298
0.00312715
0.00305496
0.00296347
0.00283031
0.00264838
0.00241051
0.00211676
0.00434311
0.00401618
0.00366807
0.00330692
0.00295364
0.00264209
0.00241508
0.00230471
0.00231063
0.00240205
0.0025466
0.00269557
0.00283375
0.00295054
0.00304183
0.00310879
0.00315618
0.00317494
0.00317537
0.00316679
0.00315416
0.00313868
0.00311683
0.00308226
0.00302167
0.00292764
0.00280245
0.0026307
0.00239535
0.00210178
0.00462589
0.00430858
0.00396597
0.00360205
0.00323087
0.00287746
0.00257885
0.00237314
0.00228022
0.00228496
0.00236141
0.00246331
0.00256632
0.00265648
0.00272465
0.00278441
0.00283361
0.00286787
0.00289118
0.00291101
0.00292766
0.00294241
0.00295161
0.00294785
0.00291858
0.00284639
0.00272751
0.00255935
0.00234345
0.00206313
0.00477164
0.00447369
0.00414885
0.00379791
0.00342931
0.00306024
0.00271932
0.00244186
0.00225733
0.00216922
0.00215627
0.00219016
0.00224512
0.00230401
0.00236054
0.00241479
0.00246382
0.00250634
0.00254408
0.00258243
0.00261926
0.00265613
0.00269024
0.00271456
0.00271778
0.00268423
0.00259531
0.00245058
0.00224467
0.00198724
0.00475061
0.00448574
0.00419377
0.00387252
0.00352599
0.00316573
0.00281352
0.00250012
0.00225722
0.0020988
0.00201282
0.00198993
0.002011
0.0020553
0.00211677
0.0021746
0.00222368
0.00226477
0.00230348
0.00233842
0.00237074
0.00240276
0.00243405
0.00246
0.00247197
0.00245731
0.00239953
0.00228124
0.00210793
0.00188534
0.00457472
0.00436157
0.00412176
0.00385019
0.00354791
0.00322447
0.00289828
0.00259759
0.00235254
0.00217531
0.00206371
0.00202341
0.00203607
0.00208233
0.00215212
0.00221357
0.00225908
0.00229308
0.00232111
0.00233949
0.00235087
0.00235775
0.00236128
0.00235931
0.00234604
0.00231214
0.00224361
0.00212691
0.00194983
0.00174846