/*--------------------------------*- C++ -*----------------------------------*\
| =========                 |                                                 |
| \\      /  F ield         | OpenFOAM: The Open Source CFD Toolbox           |
|  \\    /   O peration     | Version:  5.0                                   |
|   \\  /    A nd           | Web:      www.OpenFOAM.org                      |
|    \\/     M anipulation  |                                                 |
\*---------------------------------------------------------------------------*/
FoamFile
{
    version     2.0;
    format      ascii;
    class       volScalarField;
    location    "1850/air";
    object      epsilon;
}
// * * * * * * * * * * * * * * * * * * * * * * * * * * * * * * * * * * * * * //

dimensions      [0 2 -3 0 0 0 0];

internalField   nonuniform List<scalar> 
243000
(
3.5612
4.35558
4.74835
4.98045
5.06384
5.02912
4.89553
4.68468
4.41687
4.11368
3.79182
3.46506
3.13755
2.81954
2.51733
2.2416
1.99882
1.80069
1.789
1.67371
0.35277
1.43077
1.24954
1.11663
0.227106
0.195551
0.172552
0.139666
0.114652
0.499633
1.8631
2.20702
2.28356
2.26675
2.19171
2.07977
1.94593
1.80148
1.65353
1.50785
1.36749
1.23478
1.10988
0.995476
0.892612
0.802859
0.726366
0.666743
0.626879
0.594731
0.573284
0.54724
0.50706
0.454571
0.393567
0.327076
0.263522
0.19795
0.160737
0.220503
2.33822
2.74115
2.85904
2.84985
2.76362
2.6292
2.46614
2.28835
2.10506
1.92398
1.74897
1.58333
1.42778
1.28609
1.15969
1.05051
0.958378
0.887338
0.836307
0.800209
0.770212
0.736158
0.688306
0.623059
0.542766
0.452218
0.359182
0.26563
0.203819
0.229128
2.5763
3.02148
3.18408
3.20712
3.13805
3.00967
2.8435
2.65542
2.45654
2.25644
2.06065
1.8741
1.69835
1.53835
1.39628
1.27461
1.17296
1.09543
1.03867
0.996845
0.959843
0.917565
0.860117
0.782519
0.686527
0.576821
0.46139
0.345215
0.262377
0.239453
2.62315
3.07321
3.30482
3.37925
3.34707
3.24463
3.09409
2.91309
2.71425
2.50905
2.3047
2.10784
1.92127
1.75124
1.60053
1.47251
1.36657
1.28646
1.22676
1.18018
1.13627
1.08545
1.01835
0.929841
0.821163
0.696648
0.564216
0.42959
0.328873
0.271284
2.53666
2.98267
3.26828
3.40387
3.42229
3.35829
3.23637
3.07495
2.88813
2.68908
2.48619
2.28793
2.09846
1.92552
1.77201
1.64287
1.53692
1.45731
1.39657
1.34622
1.29584
1.2367
1.16051
1.06258
0.943836
0.8081
0.662835
0.513288
0.397269
0.315763
2.34772
2.7997
3.12984
3.32006
3.39276
3.37608
3.28912
3.15459
2.98907
2.80494
2.61157
2.41918
2.23327
2.06316
1.91175
1.78568
1.68311
1.60623
1.5459
1.49273
1.43663
1.36986
1.2855
1.17962
1.05306
0.908971
0.754155
0.59315
0.464162
0.365373
2.08767
2.55057
2.9156
3.15604
3.28258
3.31508
3.27146
3.17094
3.029
2.86508
2.68764
2.50691
2.32978
2.16675
2.0215
1.90172
1.80513
1.73259
1.67372
1.61871
1.55786
1.48453
1.39316
1.28078
1.14827
0.998185
0.836703
0.668051
0.528377
0.413784
1.79327
2.26271
2.65372
2.93663
3.11317
3.19346
3.19427
3.13173
3.02313
2.88236
2.72176
2.55672
2.39219
2.23963
2.10353
1.99238
1.90357
1.83642
1.77989
1.72395
1.65949
1.58088
1.48387
1.36645
1.22965
1.07558
0.909516
0.735841
0.587598
0.459923
1.53064
1.97942
2.37478
2.68572
2.90378
3.02845
3.07244
3.04957
2.9745
2.86175
2.7249
2.57511
2.42501
2.28527
2.16036
2.0594
1.97943
1.91834
1.86477
1.8088
1.74193
1.65948
1.55832
1.43735
1.29776
1.14164
0.971513
0.796195
0.641701
0.503528
1.30874
1.71552
2.10927
2.43449
2.67424
2.83558
2.9189
2.93449
2.89374
2.81014
2.69685
2.56801
2.43365
2.30717
2.19466
2.10471
2.03404
1.97932
1.92917
1.87399
1.80595
1.72113
1.61739
1.49439
1.35381
1.19561
1.02293
0.848806
0.690592
0.544404
1.14424
1.4747
1.85388
2.19016
2.4515
2.63484
2.74651
2.79576
2.78831
2.73404
2.64569
2.53731
2.42043
2.30923
2.20917
2.13035
2.0689
2.02069
1.97422
1.92057
1.85254
1.76688
1.66217
1.53894
1.39754
1.23831
1.06426
0.893758
0.734013
0.582067
1.05821
1.27027
1.61088
1.94986
2.23104
2.43787
2.57252
2.64387
2.6653
2.63921
2.57577
2.48859
2.38945
2.29333
2.20627
2.13839
2.08586
2.04385
2.00126
1.9498
1.8829
1.79804
1.69398
1.57085
1.42966
1.27042
1.09811
0.931919
0.77209
0.616122
1.07243
1.12842
1.39153
1.71533
2.01076
2.24119
2.40025
2.49394
2.53404
2.53166
2.49162
2.4254
2.34396
2.26275
2.18839
2.13091
2.0864
2.05044
2.01187
1.9634
1.89878
1.81525
1.71241
1.59066
1.45074
1.29259
1.12658
0.964395
0.805211
0.646486
1.20274
1.08548
1.22136
1.49657
1.79235
2.04309
2.22719
2.34455
2.40482
2.41924
2.39811
2.35116
2.28695
2.22008
2.1578
2.11
2.07296
2.0424
2.0076
1.96162
1.89925
1.81823
1.71788
1.59874
1.46135
1.30567
1.14853
0.991218
0.833475
0.673071
1.44428
1.18264
1.14199
1.31685
1.58444
1.84498
2.05207
2.1939
2.27577
2.30811
2.30179
2.26978
2.22113
2.16776
2.11671
2.07772
2.04739
2.02173
1.99072
1.94813
1.8887
1.81037
1.71278
1.59647
1.46211
1.31483
1.16514
1.01277
0.856989
0.695897
1.77961
1.43139
1.20713
1.2179
1.40806
1.65428
1.87622
2.04126
2.1456
2.19701
2.20648
2.18632
2.14958
2.10816
2.06724
2.03611
2.01174
1.99045
1.96311
1.924
1.86838
1.79362
1.69941
1.58658
1.45635
1.31906
1.17671
1.02932
0.875863
0.714971
2.18893
1.80115
1.44264
1.25362
1.30131
1.48902
1.70597
1.88793
2.01391
2.08513
2.11111
2.104
2.07649
2.04383
2.0115
1.98719
1.96798
1.95059
1.9268
1.89125
1.83961
1.76931
1.67918
1.57063
1.44866
1.31932
1.18379
1.04123
0.89026
0.730374
2.6247
2.23123
1.81243
1.45839
1.3097
1.38045
1.55569
1.73903
1.88189
1.97229
2.01517
2.02187
2.00464
1.97802
1.95183
1.93303
1.91813
1.90416
1.88378
1.85189
1.80433
1.7388
1.6537
1.55203
1.43876
1.31667
1.18712
1.04898
0.900458
0.742123
3.09568
2.70074
2.26202
1.81148
1.47478
1.36713
1.44986
1.60555
1.75351
1.85948
1.91869
1.93938
1.93328
1.91388
1.89159
1.876
1.86431
1.85323
1.83606
1.80783
1.76447
1.70394
1.62576
1.53259
1.42718
1.31171
1.18726
1.05313
0.906855
0.750421
3.59764
3.19967
2.75321
2.25925
1.78856
1.48708
1.4194
1.50573
1.63686
1.74974
1.82256
1.85665
1.86196
1.85073
1.83344
1.81949
1.80901
1.80003
1.78568
1.76102
1.72208
1.66825
1.59812
1.51279
1.41454
1.30515
1.18534
1.05447
0.910036
0.755698
4.12364
3.71984
3.26594
2.75218
2.2064
1.74235
1.49385
1.46202
1.54477
1.64886
1.72905
1.77455
1.79075
1.78829
1.77694
1.76583
1.75687
1.74884
1.7367
1.7157
1.68203
1.63439
1.57143
1.49339
1.40183
1.298
1.18232
1.05405
0.910807
0.758517
4.67365
4.25769
3.79143
3.26265
2.67728
2.10318
1.68136
1.49646
1.49302
1.56578
1.64249
1.69506
1.72071
1.7269
1.72223
1.715
1.70829
1.70168
1.69163
1.67393
1.645
1.60312
1.54674
1.4756
1.39039
1.29179
1.1797
1.05328
0.910385
0.75974
5.22935
4.79835
4.31751
3.77463
3.16583
2.52578
1.96661
1.61918
1.49771
1.51224
1.56998
1.62224
1.65441
1.66842
1.67077
1.66837
1.66466
1.66002
1.6521
1.63744
1.61279
1.57615
1.52588
1.4612
1.38198
1.28821
1.17921
1.05395
0.910247
0.760647
5.77071
5.32807
4.83517
4.27974
3.65555
2.97841
2.32508
1.83059
1.57295
1.50293
1.52319
1.56483
1.5988
1.6191
1.62858
1.63202
1.63224
1.63018
1.62449
1.61251
1.59135
1.55897
1.51364
1.45403
1.37979
1.29041
1.18441
1.05954
0.913487
0.763749
6.31117
5.8591
5.35646
4.79179
4.1578
3.46043
2.74835
2.13658
1.74049
1.56527
1.52735
1.54588
1.5762
1.60157
1.61928
1.63033
1.63596
1.63719
1.63333
1.62254
1.60269
1.57208
1.52924
1.47271
1.40132
1.31398
1.20814
1.08033
0.927187
0.774384
6.90515
6.45144
5.94535
5.37682
4.73935
4.03479
3.29146
2.59662
2.07333
1.77882
1.66447
1.64755
1.67042
1.70341
1.73464
1.75801
1.77142
1.77563
1.77046
1.75518
1.7292
1.69209
1.64317
1.58124
1.50454
1.41098
1.29679
1.15576
0.983822
0.81419
7.72168
7.27931
6.7839
6.23092
5.61745
4.94151
4.21351
3.48714
2.87002
2.46135
2.26376
2.21102
2.23542
2.29241
2.35336
2.39863
2.42005
2.4194
2.39706
2.35542
2.29731
2.22587
2.14271
2.04706
1.93516
1.80423
1.64969
1.46055
1.22752
1.00601
9.50819
9.11915
8.71033
8.28076
7.82207
7.31818
6.75065
6.13653
5.5388
5.09131
4.85691
4.80552
4.86815
4.99207
5.11133
5.18574
5.19766
5.15824
5.07263
4.94713
4.79293
4.61952
4.43384
4.23324
3.9963
3.72869
3.43756
3.09086
2.67201
2.26661
17.271
17.1464
17.1764
17.1951
17.1682
17.0704
16.8699
16.5799
16.1334
15.738
15.4795
15.3567
15.3361
15.4429
15.5458
15.608
15.5806
15.5449
15.4914
15.4389
15.3817
15.3355
15.2953
15.2442
14.9954
14.6561
14.3407
13.8629
13.2312
12.5145
6.34858
8.18125
9.11279
9.64819
9.86097
9.81426
9.56485
9.16673
8.65967
8.07992
7.45235
6.80773
6.16127
5.5449
4.97282
4.47016
4.04562
3.7244
3.50417
3.34054
3.15107
2.85998
2.44107
1.92381
1.37796
0.877131
0.173029
0.143666
0.56208
0.572537
3.98959
4.64059
5.06405
5.30639
5.39291
5.3429
5.18141
4.93926
4.64245
4.3118
3.96418
3.61435
3.27463
2.95749
2.6743
2.43571
2.24843
2.12381
2.06513
2.04204
1.99491
1.87447
1.66516
1.38293
1.06095
0.742545
0.414296
0.268947
0.317614
0.279979
3.51659
3.97181
4.2608
4.42168
4.47723
4.43873
4.31804
4.13317
3.90171
3.6402
3.36273
3.08198
2.80848
2.55411
2.32897
2.14488
2.00718
1.92446
1.89767
1.90004
1.88016
1.79614
1.63166
1.39522
1.11814
0.831021
0.555142
0.354246
0.331892
0.289026
3.22659
3.59835
3.84037
3.97913
4.03536
4.01857
3.93343
3.79088
3.60388
3.38629
3.15046
2.90836
2.66945
2.4472
2.25151
2.09466
1.98135
1.9187
1.90387
1.91166
1.89762
1.82486
1.67779
1.46439
1.2082
0.934197
0.667098
0.437718
0.329802
0.269989
2.95342
3.25697
3.48283
3.62553
3.69862
3.71011
3.66022
3.5557
3.407
3.22619
3.02443
2.81303
2.60193
2.40496
2.23215
2.0966
2.00251
1.95468
1.94708
1.95467
1.93883
1.86835
1.73062
1.53156
1.29028
1.02804
0.767049
0.52517
0.370109
0.284246
2.65106
2.90214
3.12755
3.28671
3.38569
3.42816
3.41273
3.34399
3.23081
3.08403
2.91375
2.73099
2.54554
2.37197
2.22044
2.10485
2.02849
1.99402
1.99183
1.99722
1.97688
1.90508
1.77288
1.58426
1.35621
1.10663
0.85419
0.610866
0.435132
0.330604
2.31693
2.53453
2.76644
2.94859
3.07733
3.15103
3.16553
3.13065
3.05191
2.93829
2.79867
2.6441
2.48358
2.33281
2.20203
2.10571
2.04669
2.02478
2.02699
2.02961
2.00404
1.93069
1.80112
1.62097
1.40544
1.16922
0.928264
0.690989
0.508543
0.390775
1.96202
2.16053
2.40515
2.6131
2.77207
2.87293
2.91355
2.91063
2.8644
2.78247
2.67381
2.54721
2.41182
2.28324
2.17278
2.09534
2.05284
2.04261
2.04856
2.04847
2.01837
1.94179
1.81475
1.64276
1.43953
1.21711
0.989102
0.763086
0.58179
0.455381
1.61276
1.79994
2.05749
2.2888
2.47477
2.5957
2.66311
2.68986
2.67463
2.622
2.54092
2.4404
2.33011
2.22297
2.13213
2.07275
2.0457
2.0459
2.05528
2.05257
2.01701
1.9382
1.8135
1.65045
1.46021
1.25192
1.03768
0.826018
0.650871
0.519553
1.34845
1.51126
1.75456
1.99205
2.19513
2.33079
2.42321
2.47546
2.48752
2.46188
2.40609
2.32872
2.24015
2.15336
2.08093
2.03844
2.02522
2.03453
2.04698
2.04222
2.00422
1.92406
1.80255
1.64712
1.46964
1.27546
1.07527
0.879406
0.713577
0.58018
1.1706
1.29931
1.52024
1.75375
1.94975
2.09096
2.20067
2.27242
2.30626
2.30344
2.26899
2.21249
2.14391
2.07611
2.02061
1.99344
1.99205
2.00904
2.02404
2.0181
1.97876
1.90025
1.78293
1.6361
1.46924
1.28925
1.10336
0.923757
0.768258
0.636079
1.05789
1.13992
1.33275
1.55903
1.75269
1.89441
2.00558
2.08673
2.13507
2.14877
2.13271
2.09451
2.04374
1.99301
1.95279
1.93881
1.94735
1.97033
1.98736
1.98105
1.9419
1.86635
1.75554
1.61823
1.46239
1.29523
1.12505
0.960422
0.814878
0.686236
1.00237
1.02549
1.17972
1.39123
1.58565
1.735
1.84666
1.9263
1.97855
2.00254
2.0007
1.97761
1.94206
1.90602
1.87916
1.87603
1.89237
1.91966
1.9382
1.93228
1.8948
1.82362
1.72151
1.59414
1.44966
1.29462
1.14096
0.990389
0.854351
0.730128
1.025
0.964522
1.05975
1.24026
1.43409
1.59794
1.71582
1.79439
1.84385
1.86993
1.87651
1.86471
1.84131
1.81727
1.80144
1.80668
1.82862
1.85861
1.87815
1.87328
1.83871
1.77332
1.68041
1.56423
1.43176
1.29065
1.15199
1.01453
0.887465
0.767889
1.12435
0.986045
0.999062
1.12677
1.29787
1.47291
1.6023
1.683
1.73105
1.75599
1.76435
1.75883
1.74396
1.72889
1.72148
1.73257
1.7579
1.7891
1.80922
1.80593
1.77534
1.71678
1.63346
1.52945
1.40974
1.28402
1.1591
1.03365
0.914879
0.799711
1.30715
1.10385
1.01533
1.06609
1.1973
1.36014
1.4985
1.58555
1.63508
1.65963
1.6676
1.66319
1.65262
1.64316
1.64137
1.65579
1.68243
1.71346
1.73372
1.73239
1.70646
1.65553
1.58237
1.49101
1.38595
1.27503
1.16283
1.04837
0.937165
0.825948
1.57159
1.32764
1.14537
1.08236
1.14418
1.26799
1.40233
1.49721
1.55143
1.57734
1.58543
1.58056
1.57023
1.56262
1.56343
1.57878
1.60483
1.63445
1.6544
1.65515
1.63425
1.59144
1.529
1.45105
1.36131
1.26434
1.16359
1.05923
0.954897
0.847143
1.9129
1.64987
1.40219
1.22087
1.16535
1.21881
1.32287
1.41799
1.47732
1.5063
1.51548
1.51067
1.49958
1.49018
1.49064
1.50462
1.52837
1.55551
1.57461
1.57743
1.56176
1.52738
1.47676
1.41256
1.33717
1.25291
1.16255
1.06705
0.968747
0.864283
2.32101
2.0506
1.76932
1.4959
1.30682
1.24599
1.28103
1.35508
1.41359
1.44525
1.45626
1.45227
1.44109
1.42949
1.42707
1.4375
1.45757
1.48137
1.49922
1.50397
1.49406
1.46889
1.42919
1.37771
1.3152
1.24211
1.1608
1.07273
0.979394
0.877992
2.7906
2.51616
2.21866
1.88972
1.58435
1.38417
1.30983
1.32583
1.36712
1.39609
1.40802
1.4053
1.39495
1.38265
1.37789
1.38423
1.39998
1.42
1.43672
1.44365
1.43835
1.42047
1.39046
1.35009
1.29808
1.23396
1.15964
1.07741
0.987729
0.888827
3.31895
3.04055
2.73143
2.37004
1.98325
1.65004
1.44291
1.35804
1.35154
1.36585
1.37447
1.37242
1.36402
1.35323
1.34894
1.35351
1.36618
1.38283
1.39759
1.40492
1.40233
1.39009
1.3683
1.33572
1.28978
1.23119
1.16153
1.08308
0.99508
0.896691
3.91108
3.62737
3.30466
2.91792
2.47639
2.0377
1.69266
1.48096
1.39287
1.36954
1.36646
1.36294
1.35801
1.35249
1.35356
1.36144
1.37426
1.38836
1.40017
1.40597
1.40411
1.3943
1.37633
1.34677
1.30352
1.24614
1.17577
1.09547
1.00476
0.903369
4.59038
4.29882
3.95785
3.54342
3.0582
2.54099
2.0748
1.72738
1.53009
1.44274
1.41272
1.4048
1.40641
1.41316
1.42943
1.44966
1.46887
1.48361
1.4918
1.49244
1.48506
1.47007
1.44682
1.41175
1.36311
1.29953
1.22067
1.12906
1.02481
0.912946
5.41788
5.1157
4.75192
4.30564
3.77978
3.20227
2.63913
2.16456
1.84451
1.67122
1.59848
1.58243
1.60059
1.63709
1.69061
1.74274
1.7803
1.8007
1.80216
1.78623
1.75654
1.71607
1.66492
1.60271
1.52766
1.43787
1.33182
1.21132
1.07556
0.935686
6.54665
6.23503
5.84986
5.37592
4.8199
4.20505
3.57847
3.0051
2.57343
2.31116
2.19407
2.18221
2.25161
2.36961
2.52106
2.65535
2.73755
2.76655
2.74183
2.66887
2.56071
2.42993
2.2858
2.13338
1.97265
1.8016
1.61694
1.41908
1.20521
0.999415
8.36654
8.06159
7.68166
7.21989
6.69011
6.11222
5.51398
4.94009
4.48634
4.21067
4.12373
4.21705
4.4745
4.84375
5.27191
5.6228
5.80679
5.83094
5.69222
5.41429
5.03857
4.60805
4.15906
3.71336
3.27825
2.85342
2.43165
2.00896
1.58028
1.19365
11.9562
11.7252
11.4499
11.1355
10.8161
10.5161
10.2355
9.99134
9.8484
9.88421
10.1674
10.7389
11.5867
12.6242
13.6993
14.5039
14.8699
14.8206
14.3418
13.501
12.398
11.1498
9.85489
8.57657
7.34404
6.16757
5.03796
3.93643
2.85647
1.92639
20.1969
20.1506
20.1672
20.2655
20.5489
21.0502
21.7094
22.4063
23.1644
24.0973
25.3249
26.9212
28.8185
30.8553
32.7096
33.9636
34.4693
34.2315
33.2079
31.5162
29.3032
26.7679
24.0751
21.3237
18.5583
15.8161
13.1041
10.3647
7.59888
5.18422
35.4337
35.5587
36.2449
37.3175
38.8244
40.6235
42.3535
43.9743
45.4676
47.0917
49.0261
51.1868
53.3319
55.2941
56.6234
57.159
57.0836
56.309
54.8541
52.8281
50.3687
47.6327
44.7102
41.6068
38.2674
34.6781
30.8183
26.5762
21.8871
17.5147
43.1843
43.4492
45.0812
47.1436
48.939
50.1663
50.9518
51.5945
52.3363
53.4616
54.8789
56.1754
56.9791
57.327
56.7543
55.5742
54.4745
53.1823
51.7939
50.367
49.0349
47.852
46.8265
45.8669
44.8334
43.69
42.4498
41.1311
39.5998
37.3527
9.67684
12.3247
13.434
14.1376
14.43
14.3619
14.0063
13.4367
12.7085
11.8727
10.9622
10.0231
9.07268
8.164
7.31968
6.58748
5.98972
5.6244
5.52999
5.56011
5.44716
5.02382
4.2719
3.28907
2.23651
1.27982
0.740805
0.148403
0.56856
0.606168
5.65341
6.38969
6.76175
7.01837
7.11806
7.05942
6.86834
6.57471
6.20844
5.79289
5.35003
4.89727
4.45222
4.02893
3.65009
3.33275
3.10272
3.01193
3.09502
3.2522
3.3084
3.16261
2.81316
2.32041
1.748
1.15998
0.661534
0.326766
0.365758
0.279995
5.10197
5.54933
5.79831
5.93209
5.95538
5.87471
5.70554
5.46423
5.16734
4.83093
4.47211
4.10541
3.74571
3.40663
3.10636
2.86398
2.6993
2.65426
2.75427
2.91748
3.00031
2.91605
2.66607
2.27542
1.79861
1.29179
0.815809
0.449503
0.376123
0.30387
4.82167
5.14471
5.3509
5.45832
5.47337
5.40369
5.26039
5.05516
4.79969
4.50672
4.19094
3.86576
3.54483
3.24401
2.98085
2.77405
2.64052
2.61691
2.7137
2.85904
2.93684
2.87285
2.656
2.31517
1.89212
1.42705
0.968756
0.572642
0.387668
0.295993
4.55179
4.77645
4.9601
5.07174
5.10557
5.06572
4.95644
4.78773
4.5697
4.3139
4.03361
3.74141
3.45194
3.18148
2.94758
2.77017
2.66354
2.65811
2.74919
2.87244
2.93126
2.86597
2.66695
2.35698
1.97061
1.53965
1.10265
0.695893
0.444138
0.313035
4.22313
4.36523
4.53883
4.66905
4.73573
4.73643
4.66795
4.53904
4.35942
4.14074
3.89558
3.63619
3.37727
3.13646
2.93147
2.7834
2.70424
2.71619
2.80163
2.90134
2.93764
2.86223
2.66993
2.38221
2.0254
1.62577
1.21373
0.814546
0.528245
0.364251
3.8501
3.91912
4.08216
4.2344
4.33994
4.38389
4.36106
4.27466
4.13538
3.95552
3.747
3.52211
3.29476
3.08476
2.91008
2.79277
2.74246
2.7711
2.85098
2.92789
2.94029
2.85196
2.6614
2.38802
2.05758
1.68772
1.30285
0.922664
0.623162
0.434778
3.44178
3.45098
3.60187
3.77481
3.91907
4.0064
4.02897
3.9873
3.89028
3.75029
3.57956
3.39072
3.19705
3.01897
2.87611
2.79103
2.77011
2.81435
2.88867
2.94448
2.93361
2.83212
2.64165
2.37951
2.07082
1.72891
1.37183
1.01606
0.71795
0.512896
3.00141
2.97127
3.11455
3.30613
3.48498
3.61268
3.67721
3.67977
3.62539
3.52581
3.39378
3.24143
3.08292
2.93774
2.82767
2.77565
2.78345
2.84176
2.91025
2.94699
2.91557
2.80206
2.61145
2.36008
2.06849
1.75267
1.4228
1.09337
0.805365
0.591672
2.54607
2.4988
2.64159
2.84998
3.05553
3.21642
3.31829
3.35973
3.34655
3.28661
3.19283
3.07688
2.95359
2.84234
2.76515
2.74602
2.78072
2.85077
2.91409
2.93314
2.88404
2.76195
2.57196
2.33145
2.05656
1.76272
1.45883
1.15516
0.881094
0.665774
2.16565
2.09616
2.22695
2.43594
2.65402
2.83527
2.96601
3.03943
3.06172
3.03891
2.98161
2.90089
2.81195
2.73448
2.6898
2.70217
2.76081
2.83984
2.89758
2.90125
2.83854
2.71055
2.52411
2.29496
2.0364
1.76166
1.48498
1.20345
0.944343
0.731706
1.86511
1.76424
1.87266
2.07347
2.29542
2.4896
2.63704
2.73154
2.78117
2.78999
2.7658
2.71796
2.66149
2.61644
2.60299
2.64431
2.72302
2.80833
2.86002
2.85134
2.77914
2.64869
2.46894
2.25173
2.00962
1.75467
1.50076
1.23945
0.995198
0.788212
1.64518
1.50472
1.58007
1.76261
1.98044
2.18078
2.33921
2.44937
2.51643
2.5481
2.55151
2.53277
2.50598
2.49111
2.50575
2.57272
2.66713
2.75631
2.80161
2.78397
2.70645
2.57716
2.40661
2.20269
1.97791
1.74451
1.50803
1.26475
1.03458
0.83484
1.50803
1.32497
1.3541
1.50471
1.70851
1.90883
2.07397
2.19464
2.27536
2.32293
2.34523
2.35018
2.34938
2.36087
2.39967
2.48807
2.59365
2.68434
2.72372
2.7004
2.62158
2.49697
2.33727
2.14903
1.94374
1.72982
1.50766
1.28079
1.06376
0.871956
1.4767
1.24615
1.20865
1.30867
1.48304
1.67415
1.84123
1.96855
2.05868
2.11805
2.15458
2.17567
2.19522
2.22818
2.28699
2.39183
2.50431
2.5944
2.62904
2.60322
2.5267
2.40993
2.26322
2.09307
1.90925
1.71124
1.50265
1.28948
1.08419
0.900332
1.54038
1.28494
1.16738
1.192
1.31551
1.48148
1.64206
1.77162
1.86761
1.9351
1.982
2.01473
2.04791
2.09654
2.17076
2.28665
2.40217
2.49018
2.52162
2.49619
2.42519
2.31927
2.18813
2.04008
1.8738
1.69009
1.49379
1.29192
1.09721
0.920964
1.70151
1.42888
1.24614
1.17804
1.22632
1.34299
1.48182
1.60589
1.70334
1.77547
1.82935
1.8707
1.91285
1.97048
2.05517
2.17705
2.29244
2.37756
2.40758
2.38511
2.3228
2.2311
2.12032
1.99074
1.83901
1.66782
1.48225
1.29
1.10431
0.93504
1.98122
1.69455
1.46
1.29881
1.24013
1.28084
1.37318
1.47747
1.56891
1.64129
1.69891
1.74617
1.7953
1.85651
1.9471
2.07067
2.18375
2.26584
2.29658
2.2799
2.23098
2.15706
2.06247
1.94711
1.80741
1.6464
1.4696
1.28551
1.10696
0.943912
2.38014
2.07784
1.80444
1.56361
1.3929
1.32155
1.33695
1.399
1.47126
1.537
1.59458
1.64551
1.70048
1.76627
1.8589
1.98094
2.09125
2.17079
2.20603
2.20026
2.16343
2.10244
2.02015
1.91421
1.78269
1.62864
1.45794
1.27993
1.10663
0.948872
2.89204
2.57075
2.2641
1.96132
1.6895
1.49493
1.40111
1.38876
1.42394
1.47194
1.52439
1.57712
1.63833
1.71239
1.81179
1.93287
2.04318
2.12294
2.16273
2.16438
2.13567
2.08221
2.00353
1.89927
1.77024
1.61847
1.45021
1.27546
1.10547
0.951358
3.51792
3.17179
2.83002
2.4749
2.12083
1.81053
1.59262
1.47936
1.44867
1.46416
1.50564
1.55974
1.6309
1.71979
1.83582
1.96658
2.08186
2.16262
2.2042
2.20907
2.18193
2.12724
2.04513
1.93382
1.79252
1.62821
1.45277
1.27535
1.10537
0.952802
4.27374
3.89599
3.51316
3.10664
2.68348
2.27564
1.93776
1.70853
1.591
1.55672
1.57799
1.63525
1.72537
1.84375
1.99701
2.15643
2.28618
2.37312
2.41408
2.41335
2.37335
2.29924
2.19387
2.05795
1.89238
1.70189
1.49739
1.29793
1.11561
0.957088
5.20768
4.79196
4.36217
3.90221
3.41743
2.93111
2.49219
2.15136
1.93747
1.84295
1.83958
1.90948
2.04104
2.22111
2.45555
2.68076
2.84834
2.94899
2.98386
2.9565
2.87094
2.73753
2.56624
2.36362
2.13474
1.88635
1.62885
1.38104
1.1582
0.974891
6.4375
5.98096
5.50433
4.99534
4.46116
3.92106
3.41489
2.99227
2.69988
2.5564
2.54666
2.66573
2.8983
3.22074
3.63361
4.00591
4.25595
4.38148
4.38912
4.27788
4.06574
3.77784
3.44168
3.07744
2.69857
2.31598
1.94077
1.59084
1.28147
1.03522
8.238
7.75269
7.24838
6.71785
6.17264
5.63316
5.13205
4.71075
4.4234
4.31107
4.38889
4.67845
5.16976
5.82602
6.62823
7.30211
7.7087
7.86484
7.76949
7.4332
6.90339
6.2405
5.51239
4.77007
4.04324
3.35065
2.70316
2.11608
1.60557
1.20767
11.2689
10.803
10.3316
9.85879
9.40598
9.00175
8.67871
8.46707
8.41218
8.57867
9.01351
9.77111
10.8507
12.1865
13.6972
14.8654
15.4904
15.6383
15.2783
14.4634
13.2829
11.8579
10.3273
8.79616
7.32559
5.95134
4.68519
3.53562
2.52609
1.7415
17.0708
16.7341
16.4027
16.1417
15.988
15.9882
16.1786
16.5575
17.1466
18.0072
19.216
20.8458
22.8853
25.1962
27.5618
29.1882
29.9296
29.9212
29.109
27.6039
25.5282
23.0558
20.3689
17.627
14.9251
12.3256
9.86723
7.52871
5.36164
3.60754
28.1215
28.0985
28.15
28.3174
28.7396
29.4912
30.5081
31.7412
33.1899
34.9355
37.0529
39.5876
42.4642
45.3788
47.8837
49.0827
49.3464
48.7787
47.4483
45.4551
42.9193
39.9746
36.7244
33.2394
29.5419
25.6696
21.7611
17.728
13.648
10.0814
43.3168
43.3401
44.2583
45.645
47.1616
48.645
50.1013
51.5975
53.2363
55.1748
57.4347
59.8767
62.229
63.9049
64.3205
63.0543
61.6802
59.9796
58.2102
56.3201
54.44
52.6226
50.8167
48.8606
46.5693
43.7804
40.2375
36.1005
31.341
26.6522
47.7192
48.3763
50.1367
52.2946
54.2457
55.6859
56.6477
57.4361
58.3507
59.5798
60.9993
62.215
62.831
62.5752
61.0061
58.1003
55.7481
53.4895
51.6304
50.099
49.0243
48.3776
48.0776
47.9215
47.6984
47.2832
46.6676
45.8585
44.7724
43.3045
13.2742
16.6944
17.9513
18.6126
18.8995
18.7852
18.3228
17.5924
16.6562
15.5769
14.3889
13.1513
11.8795
10.6523
9.50219
8.5164
7.77178
7.59758
8.11176
8.81298
8.99311
8.39984
7.14177
5.47734
3.6803
2.03242
0.791372
0.152355
0.560623
0.603308
7.52067
8.36186
8.71713
8.89638
8.95715
8.86512
8.62325
8.25969
7.80616
7.28914
6.73423
6.15906
5.58938
5.03927
4.54796
4.13757
3.87888
3.94154
4.4119
4.97069
5.20453
4.99123
4.42714
3.65087
2.76314
1.81559
0.95526
0.382219
0.343928
0.261161
6.82763
7.2666
7.47802
7.5673
7.54943
7.42515
7.2019
6.8921
6.51408
6.08531
5.62569
5.14951
4.67927
4.23091
3.83619
3.51941
3.33549
3.42275
3.83756
4.32532
4.56338
4.44364
4.04057
3.46101
2.74134
1.95
1.18182
0.559057
0.373439
0.284747
6.55225
6.80707
6.97848
7.05984
7.04351
6.93249
6.73447
6.45851
6.11942
5.7317
5.31326
4.87707
4.44579
4.03875
3.68658
3.41331
3.269
3.37429
3.74182
4.1563
4.36808
4.27364
3.93757
3.42721
2.79734
2.09005
1.37491
0.722514
0.415968
0.291441
6.28716
6.41708
6.57087
6.66989
6.68582
6.61185
6.44976
6.20902
5.90463
5.55077
5.16432
4.75911
4.35901
3.98357
3.66506
3.42984
3.32583
3.45229
3.78429
4.13209
4.2946
4.19632
3.88283
3.41232
2.84255
2.19864
1.5311
0.882264
0.495277
0.320548
5.94527
5.98129
6.12426
6.25339
6.31486
6.29159
6.17532
5.97606
5.71029
5.3929
5.04087
4.66775
4.2996
3.95664
3.6731
3.47885
3.42032
3.57141
3.87155
4.15547
4.26217
4.14516
3.83587
3.39052
2.86269
2.27307
1.65337
1.03192
0.600346
0.378623
5.5295
5.48845
5.62046
5.78002
5.89156
5.92274
5.86001
5.70879
5.4878
5.2123
4.90059
4.56333
4.23024
3.92407
3.68032
3.53248
3.52558
3.70153
3.97139
4.19116
4.24259
4.09722
3.78546
3.35737
2.85893
2.3177
1.7455
1.16383
0.716557
0.456996
5.05842
4.94879
5.06806
5.25308
5.41255
5.49701
5.49209
5.39467
5.22342
4.99486
4.72865
4.4339
4.13992
3.87472
3.67649
3.58175
3.6294
3.82785
4.06689
4.22598
4.22222
4.04587
3.72866
3.31373
2.84118
2.33904
1.81259
1.27583
0.832074
0.546055
4.54592
4.37059
4.4823
4.68793
4.88905
5.02441
5.07526
5.03504
4.91758
4.74012
4.52346
4.27619
4.02605
3.80622
3.6588
3.62251
3.72553
3.94087
4.14694
4.24887
4.19336
3.98783
3.66505
3.26164
2.81242
2.34201
1.86072
1.36716
0.938031
0.636583
4.00787
3.78135
3.88475
4.10658
4.34052
4.52062
4.62348
4.63858
4.57651
4.45252
4.28835
4.09212
3.89033
3.71985
3.6274
3.65322
3.80848
4.03286
4.20462
4.25232
4.15098
3.92147
3.59506
3.20331
2.77633
2.33595
1.89553
1.43875
1.02941
0.721466
3.46683
3.2247
3.31468
3.53834
3.79269
4.00715
4.15551
4.21886
4.21085
4.14025
4.02953
3.88614
3.73558
3.61838
3.58345
3.67256
3.87285
4.09688
4.23257
4.23045
4.09177
3.84545
3.51924
3.14088
2.73636
2.32662
1.91479
1.49078
1.10325
0.796826
3.00474
2.73314
2.79879
3.01171
3.27326
3.5107
3.69266
3.79518
3.83358
3.81368
3.75481
3.66406
3.56592
3.50468
3.52783
3.67841
3.9129
4.12656
4.22598
4.18123
4.01458
3.75915
3.43871
3.07658
2.69646
2.31193
1.91999
1.52469
1.1593
0.860184
2.62437
2.31717
2.34891
2.53932
2.79593
3.04521
3.24925
3.38637
3.46204
3.48425
3.47284
3.43221
3.38643
3.38157
3.46107
3.66787
3.92399
4.12163
4.18313
4.10498
3.92023
3.664
3.35554
3.01331
2.65847
2.29039
1.91481
1.54307
1.19871
0.910333
2.32409
1.98881
1.97679
2.13244
2.37094
2.62051
2.83737
3.00063
3.10715
3.16546
3.19263
3.19689
3.20269
3.25065
3.38468
3.63814
3.90136
4.07635
4.10512
4.00416
3.81183
3.56328
3.27352
2.95703
2.62014
2.26405
1.90214
1.5478
1.22316
0.947428
2.12725
1.76832
1.69812
1.80558
2.01005
2.24614
2.46605
2.64486
2.77657
2.86485
2.92502
2.96571
3.01856
3.11623
3.30036
3.58793
3.84576
3.99616
3.99842
3.88535
3.69622
3.4636
3.2011
2.90667
2.58046
2.23418
1.88339
1.54302
1.23513
0.972561
2.04974
1.68349
1.53764
1.57936
1.72956
1.93435
2.1443
2.32804
2.47594
2.58831
2.67551
2.74742
2.84073
2.98396
3.21153
3.51942
3.76299
3.88951
3.87477
3.7607
3.58566
3.38089
3.14176
2.85923
2.54112
2.20216
1.86013
1.53166
1.23639
0.987193
2.09903
1.73849
1.5327
1.47863
1.55083
1.70191
1.88381
2.05991
2.21395
2.3423
2.45181
2.55154
2.67714
2.86209
3.12509
3.44112
3.66632
3.77303
3.75361
3.65144
3.50681
3.3232
3.09399
2.8177
2.50429
2.1698
1.8342
1.51553
1.23131
0.993473
2.27317
1.91393
1.66111
1.52171
1.49737
1.57092
1.7012
1.85216
2.00051
2.13599
2.26257
2.3869
2.54411
2.76253
3.05448
3.37128
3.57951
3.67586
3.66922
3.59665
3.46786
3.28642
3.06222
2.78648
2.47333
2.13997
1.80812
1.49685
1.22192
0.993171
2.60631
2.23792
1.94226
1.72198
1.5929
1.56019
1.61818
1.72119
1.84863
1.98146
2.11981
2.2661
2.45869
2.70599
3.02536
3.34353
3.54512
3.65084
3.66982
3.60521
3.46902
3.29353
3.05616
2.77237
2.45382
2.11694
1.78535
1.47851
1.21046
0.989632
3.11076
2.71444
2.37371
2.08026
1.8495
1.7045
1.6563
1.68937
1.77862
1.89822
2.04366
2.21474
2.44439
2.73526
3.09073
3.42077
3.6445
3.7657
3.79405
3.71965
3.58305
3.40157
3.13745
2.81048
2.45872
2.10727
1.77093
1.46429
1.19977
0.984661
3.78304
3.34671
2.95571
2.59461
2.27278
2.01656
1.85491
1.79459
1.82316
1.91752
2.07216
2.27571
2.55906
2.91369
3.33804
3.71475
3.97427
4.11016
4.12446
4.03377
3.89272
3.66287
3.34295
2.96048
2.54827
2.14385
1.77793
1.45979
1.19343
0.980643
4.64456
4.15838
3.71111
3.28477
2.88367
2.52978
2.25917
2.10002
2.0572
2.12016
2.28628
2.53887
2.90618
3.37023
3.92241
4.39674
4.72145
4.85829
4.85125
4.74778
4.55006
4.20672
3.77023
3.28385
2.78339
2.30023
1.86269
1.496
1.20523
0.98318
5.76064
5.21886
4.71298
4.22569
3.75919
3.33019
2.97344
2.72968
2.62576
2.66616
2.86693
3.21203
3.72818
4.38201
5.17131
5.823
6.26235
6.38982
6.37767
6.22546
5.84756
5.28391
4.62534
3.94076
3.27457
2.65568
2.10281
1.64232
1.27924
1.01514
7.28721
6.69378
6.13804
5.60595
5.10016
4.63493
4.2416
3.96549
3.8499
3.92522
4.23114
4.76684
5.56124
6.55487
7.76025
8.69641
9.32047
9.47543
9.48359
9.08615
8.35065
7.38482
6.3283
5.28025
4.30166
3.42143
2.64993
2.0052
1.4955
1.13236
9.57861
8.95536
8.38051
7.84609
7.35857
6.93415
6.60485
6.41789
6.42353
6.68854
7.26515
8.18283
9.47726
11.0419
12.8857
14.1885
15.0558
15.3471
15.1149
14.3059
13.0028
11.3851
9.68437
8.02459
6.48738
5.11698
3.91305
2.88662
2.05826
1.46016
13.3581
12.7973
12.2623
11.8087
11.4506
11.2094
11.1241
11.2465
11.6344
12.3524
13.4635
15.0247
17.08
19.4311
22.0336
23.6153
24.5953
24.8009
24.1977
22.8708
20.899
18.4736
15.9553
13.4503
11.0615
8.87779
6.88636
5.09954
3.57597
2.44112
19.8969
19.5461
19.2311
18.9759
18.9067
19.0405
19.4447
20.1418
21.1624
22.5666
24.4033
26.7439
29.635
32.6916
35.7555
36.7587
36.8771
36.2274
35.1208
33.5214
31.4914
29.0726
26.1431
22.9815
19.7287
16.5899
13.4948
10.4748
7.67581
5.45561
30.4213
30.2809
30.4181
30.7701
31.1927
31.8338
32.7951
34.0585
35.6408
37.5984
39.9541
42.7552
45.9749
48.8682
50.7685
49.1109
47.6554
45.9642
44.4433
42.8534
41.2333
39.5032
37.5897
35.37
32.7153
29.4066
25.6689
21.5672
17.3298
13.7009
42.1692
42.3273
43.205
44.4297
45.7275
46.9966
48.1901
49.4788
50.9945
52.7928
54.8591
57.1297
59.3667
60.2464
59.5872
55.0753
52.045
49.4231
47.5889
46.2041
45.3333
44.8114
44.4578
44.0023
43.16
41.753
39.6372
36.8638
33.2686
29.6902
44.0502
45.1016
46.8847
48.9103
50.7622
52.2352
53.34
54.2949
55.3342
56.5886
57.9337
59.0319
59.5699
58.5631
55.5961
49.5471
45.7935
42.8304
40.9345
39.7218
39.2745
39.5212
40.2742
41.1955
42.0087
42.5434
42.726
42.577
42.1417
41.442
17.497
21.658
22.9736
23.4794
23.6238
23.379
22.7525
21.8199
20.6432
19.288
17.7813
16.1928
14.5334
12.9158
11.39
10.1089
9.2897
9.82224
11.9002
14.0044
14.6171
13.625
11.5531
8.93719
6.13693
3.49249
1.43489
0.649761
0.129608
0.567031
9.65153
10.5376
10.8375
10.9129
10.8888
10.7374
10.4343
9.99549
9.45181
8.82713
8.14995
7.43251
6.71273
5.9994
5.36309
4.82353
4.5553
5.00566
6.28978
7.53092
7.94547
7.5425
6.65194
5.5284
4.28175