/*--------------------------------*- C++ -*----------------------------------*\
| =========                 |                                                 |
| \\      /  F ield         | OpenFOAM: The Open Source CFD Toolbox           |
|  \\    /   O peration     | Version:  5.0                                   |
|   \\  /    A nd           | Web:      www.OpenFOAM.org                      |
|    \\/     M anipulation  |                                                 |
\*---------------------------------------------------------------------------*/
FoamFile
{
    version     2.0;
    format      ascii;
    class       volScalarField;
    location    "1850/air";
    object      k;
}
// * * * * * * * * * * * * * * * * * * * * * * * * * * * * * * * * * * * * * //

dimensions      [0 2 -2 0 0 0 0];

internalField   nonuniform List<scalar> 
243000
(
0.0758324
0.0845569
0.0873775
0.0880652
0.0870195
0.0847486
0.0815534
0.0777116
0.0734519
0.0689999
0.0645128
0.0601118
0.0558092
0.0516898
0.0477955
0.0442384
0.0410963
0.0385407
0.038465
0.0369349
0.0363448
0.0346545
0.0319511
0.0298286
0.0283196
0.0259104
0.0242655
0.0211092
0.0185996
0.0204846
0.114498
0.128187
0.131133
0.130489
0.127592
0.12321
0.117866
0.111958
0.105741
0.0994358
0.0931652
0.0870361
0.0810635
0.0753928
0.0701055
0.0653235
0.0611052
0.0577105
0.055133
0.0535488
0.0522614
0.0503527
0.0480986
0.0447776
0.0407429
0.0360429
0.0310707
0.0256646
0.0223605
0.0276195
0.133219
0.148115
0.152331
0.152004
0.148922
0.144053
0.138034
0.131318
0.124208
0.116979
0.109773
0.102728
0.0958854
0.0894319
0.0834722
0.078147
0.0735074
0.069825
0.0671003
0.0651668
0.0635336
0.0616196
0.0589305
0.0551431
0.0503012
0.0445367
0.0381845
0.031225
0.0261814
0.0283348
0.142116
0.158049
0.163669
0.164458
0.162088
0.157636
0.151779
0.14501
0.137677
0.130095
0.122456
0.11495
0.107646
0.100775
0.0944705
0.088899
0.0841061
0.0803542
0.0775487
0.0754487
0.0735659
0.0713832
0.0683676
0.064187
0.0588211
0.0523706
0.0451214
0.0371865
0.0309754
0.0291678
0.143835
0.159849
0.167782
0.170292
0.169209
0.165738
0.160571
0.154246
0.147145
0.139632
0.131944
0.12432
0.116872
0.10987
0.103472
0.0978779
0.0931232
0.089444
0.0866504
0.0844374
0.0823238
0.0798452
0.0765146
0.0720097
0.0662792
0.0593926
0.0515988
0.0430231
0.0360065
0.0316788
0.140656
0.156695
0.166544
0.171119
0.171736
0.169587
0.165458
0.159909
0.153365
0.146235
0.138784
0.131304
0.123952
0.117044
0.110737
0.105289
0.100709
0.0971971
0.0944723
0.0921818
0.0898612
0.0871
0.0834795
0.0787097
0.072726
0.0655695
0.0574494
0.0484447
0.0408388
0.0350459
0.133581
0.150219
0.161808
0.168299
0.170747
0.170187
0.167251
0.162659
0.156919
0.150407
0.143412
0.13628
0.129205
0.122558
0.116485
0.111305
0.106998
0.103711
0.101091
0.0987538
0.0962575
0.0932452
0.0893712
0.0843885
0.0782339
0.0709188
0.0626124
0.0533482
0.0453027
0.0386205
0.123523
0.14117
0.154337
0.16271
0.16703
0.168131
0.166653
0.163222
0.158314
0.152549
0.146184
0.139556
0.132902
0.126627
0.120903
0.116076
0.112109
0.10908
0.10659
0.104234
0.101599
0.0983789
0.0942938
0.0891469
0.0828818
0.0754869
0.0671025
0.0577502
0.0493897
0.0419622
0.111618
0.130336
0.144951
0.155079
0.161233
0.163994
0.164021
0.161874
0.15811
0.153163
0.14742
0.141399
0.135266
0.129452
0.124151
0.119737
0.116148
0.113395
0.11105
0.108705
0.105971
0.102591
0.098344
0.0930796
0.0867531
0.0793405
0.0709414
0.061594
0.0530141
0.0450247
0.100434
0.119216
0.134606
0.146114
0.15392
0.158295
0.159824
0.15903
0.15641
0.152432
0.147534
0.142077
0.136501
0.131205
0.126378
0.122407
0.119214
0.116743
0.114553
0.112243
0.109452
0.105964
0.101606
0.0962722
0.0899285
0.082557
0.0741297
0.0649175
0.0562198
0.0478261
0.0904765
0.108369
0.124375
0.136853
0.145697
0.1515
0.154454
0.155004
0.153566
0.150595
0.14652
0.141816
0.136825
0.132042
0.127713
0.124196
0.121396
0.119204
0.117175
0.114923
0.112117
0.108572
0.104158
0.098803
0.0924993
0.0851386
0.0767225
0.0677464
0.0590397
0.0503788
0.0827279
0.0979726
0.11412
0.127535
0.13749
0.144263
0.148311
0.150079
0.149813
0.147864
0.144662
0.140684
0.13633
0.132121
0.128275
0.125203
0.12278
0.120859
0.118992
0.11682
0.114037
0.110488
0.106072
0.100757
0.0944808
0.0871537
0.0787752
0.0701174
0.0614885
0.0526749
0.0785308
0.0886952
0.103915
0.118026
0.129118
0.13698
0.141979
0.144593
0.145374
0.144425
0.142102
0.138878
0.135164
0.131515
0.128163
0.125518
0.12345
0.121781
0.120076
0.118002
0.11528
0.111783
0.107422
0.102145
0.0959227
0.0886537
0.0804396
0.0721003
0.0635968
0.0547089
0.0792381
0.0819655
0.0942535
0.10836
0.120471
0.129509
0.135567
0.139073
0.140561
0.140474
0.13899
0.136517
0.133444
0.130343
0.12747
0.125225
0.123471
0.122042
0.1205
0.11855
0.115928
0.112496
0.108199
0.103002
0.0968628
0.089682
0.0818255
0.0737664
0.0654025
0.0564909
0.0855389
0.0798777
0.0864049
0.0989384
0.11158
0.121759
0.128969
0.133462
0.135741
0.136284
0.13549
0.133717
0.131272
0.1287
0.12628
0.124405
0.122941
0.121723
0.12033
0.118478
0.115947
0.112619
0.10843
0.10335
0.0973344
0.0902868
0.0828853
0.0751282
0.0669236
0.0580285
0.0966418
0.0845841
0.0826255
0.0908513
0.102775
0.113754
0.122116
0.127681
0.13084
0.132078
0.131838
0.130613
0.128741
0.12667
0.124672
0.123133
0.121928
0.120901
0.119655
0.117935
0.115517
0.112294
0.108215
0.103252
0.0973681
0.0907101
0.0836832
0.0762135
0.0681759
0.0593332
0.111077
0.0960697
0.0857479
0.0862463
0.0949991
0.105773
0.115035
0.121687
0.125802
0.127804
0.128173
0.127392
0.125962
0.124338
0.122722
0.121484
0.120509
0.119651
0.118546
0.11696
0.114688
0.111601
0.107651
0.102825
0.097114
0.0909059
0.0842373
0.077042
0.0691728
0.0604125
0.12751
0.111972
0.096573
0.087934
0.0901385
0.098606
0.107966
0.115514
0.120599
0.123428
0.124453
0.124174
0.12309
0.121796
0.120507
0.119531
0.118756
0.118049
0.117081
0.11563
0.113508
0.110591
0.106796
0.102135
0.096773
0.090919
0.0845758
0.0776354
0.0699285
0.0612773
0.143914
0.129151
0.112442
0.0972745
0.0905356
0.0937571
0.101529
0.109357
0.115269
0.118933
0.120652
0.120921
0.120234
0.119167
0.118112
0.11735
0.116742
0.116169
0.115333
0.114021
0.112053
0.109316
0.105713
0.101329
0.0963331
0.0907982
0.084735
0.0780205
0.0704613
0.0619327
0.16065
0.146683
0.130339
0.112405
0.0980013
0.0931607
0.0968734
0.103687
0.109965
0.114353
0.11677
0.117609
0.117364
0.116577
0.11567
0.115031
0.114549
0.11409
0.113378
0.112206
0.110398
0.107851
0.104521
0.100484
0.0958165
0.090571
0.0847424
0.0782263
0.0707945
0.0623936
0.177575
0.16423
0.14858
0.130236
0.111456
0.0985437
0.0955188
0.0993464
0.105032
0.109808
0.112836
0.11424
0.114459
0.113999
0.113287
0.11271
0.112273
0.111897
0.111296
0.110262
0.108625
0.106343
0.103335
0.0996179
0.0952516
0.09027
0.0846514
0.0782928
0.0709598
0.062686
0.194484
0.181575
0.166492
0.148546
0.1282
0.109528
0.0988397
0.0974198
0.101057
0.105546
0.108943
0.110847
0.111522
0.111421
0.110948
0.110483
0.110107
0.109766
0.109253
0.108364
0.106936
0.104901
0.102184
0.0987663
0.0946816
0.0899412
0.0845084
0.0782724
0.0709996
0.0628423
0.21141
0.198677
0.183899
0.166384
0.145843
0.124173
0.106955
0.0989519
0.0987912
0.101972
0.105276
0.107512
0.108595
0.108856
0.108659
0.108354
0.108068
0.107785
0.107356
0.1066
0.105363
0.103561
0.101113
0.0979825
0.0941675
0.089655
0.0843839
0.0782341
0.0709773
0.0629106
0.22785
0.215156
0.200536
0.183359
0.163081
0.140292
0.118739
0.104299
0.0990043
0.0996372
0.102155
0.104411
0.105787
0.106384
0.106484
0.106381
0.106221
0.10602
0.105679
0.105048
0.103985
0.102398
0.100204
0.0973459
0.093789
0.0894907
0.084361
0.0782672
0.0709696
0.0629617
0.243312
0.230709
0.216257
0.199368
0.179487
0.156585
0.132762
0.113198
0.102301
0.0992328
0.100118
0.101934
0.103404
0.104278
0.104685
0.104831
0.104839
0.104748
0.1045
0.103981
0.103064
0.101656
0.0996698
0.0970294
0.0936915
0.089594
0.0846097
0.078544
0.0711371
0.0631351
0.258272
0.245791
0.23153
0.214965
0.195568
0.173048
0.148419
0.125488
0.109449
0.101964
0.100304
0.101111
0.102428
0.103525
0.104286
0.104759
0.104999
0.105049
0.104881
0.104414
0.103556
0.102228
0.100356
0.0978617
0.0946668
0.0906837
0.0857375
0.0795679
0.0718453
0.0637202
0.27423
0.262086
0.248199
0.232119
0.213398
0.191696
0.167374
0.142908
0.122997
0.111046
0.106226
0.1055
0.106472
0.107869
0.109183
0.11016
0.110719
0.110892
0.110674
0.110033
0.10894
0.107371
0.105286
0.102617
0.0992645
0.0950974
0.0898847
0.0832307
0.0747406
0.0658872
0.295439
0.284049
0.271015
0.256086
0.238996
0.219426
0.197318
0.173943
0.152765
0.137891
0.1304
0.12836
0.129298
0.131484
0.133803
0.135513
0.136318
0.136292
0.13545
0.133874
0.131659
0.128911
0.125675
0.1219
0.117408
0.112042
0.105537
0.0972906
0.0866243
0.075892
0.339403
0.330084
0.320147
0.309537
0.298003
0.28507
0.270141
0.253505
0.236767
0.223832
0.216899
0.215359
0.217221
0.220888
0.224391
0.226563
0.226909
0.22576
0.223254
0.219555
0.214966
0.209746
0.204083
0.197875
0.190413
0.181805
0.172201
0.160399
0.145535
0.130456
0.50525
0.502814
0.503402
0.50377
0.503245
0.501336
0.497406
0.491689
0.482824
0.4749
0.46968
0.46719
0.466769
0.468932
0.471013
0.472267
0.471714
0.470994
0.469912
0.468848
0.467689
0.46675
0.465932
0.464891
0.459809
0.452845
0.446315
0.436331
0.422954
0.40756
0.111492
0.128726
0.13494
0.136854
0.135699
0.132346
0.127456
0.121574
0.11506
0.108217
0.101221
0.0942935
0.0875156
0.0811347
0.0752463
0.0700859
0.0657549
0.0625643
0.060541
0.0592816
0.0577543
0.0549419
0.0503067
0.0437424
0.0357401
0.0270261
0.0244698
0.0217366
0.0214477
0.0224222
0.174004
0.199296
0.204825
0.202267
0.195261
0.185855
0.175236
0.164131
0.152958
0.142048
0.131528
0.121582
0.112195
0.103628
0.0959503
0.0893962
0.0839207
0.0800573
0.0779118
0.0770678
0.076314
0.074344
0.0700196
0.0629109
0.0534809
0.0425759
0.0332547
0.0294105
0.0335243
0.031589
0.205905
0.235245
0.244548
0.243857
0.23765
0.228184
0.216869
0.204571
0.191852
0.179189
0.166807
0.154991
0.143771
0.133533
0.124433
0.116769
0.110431
0.10598
0.103348
0.102008
0.100708
0.0981125
0.0929328
0.084587
0.0733925
0.0601728
0.046866
0.0365974
0.0372178
0.0360899
0.219716
0.250808
0.262668
0.264736
0.260842
0.253163
0.243021
0.231344
0.218773
0.20589
0.193017
0.180548
0.168596
0.15766
0.148016
0.140006
0.133475
0.128903
0.125983
0.124093
0.122032
0.118587
0.112525
0.103206
0.0908492
0.0761248
0.0604574
0.0457305
0.0390203
0.0357539
0.220413
0.249529
0.265303
0.271549
0.270895
0.265912
0.257851
0.247758
0.236265
0.224078
0.211583
0.199268
0.187342
0.176413
0.166857
0.159051
0.152785
0.148405
0.145371
0.142987
0.140158
0.135853
0.128994
0.118966
0.105924
0.0904054
0.0735135
0.0562459
0.044587
0.0381502
0.214098
0.240756
0.259015
0.268552
0.27157
0.269695
0.264125
0.256224
0.246344
0.235477
0.223949
0.212361
0.201011
0.1906
0.181573
0.174363
0.168676
0.164694
0.161665
0.15886
0.155322
0.150222
0.142681
0.132167
0.11879
0.102969
0.0855942
0.0671942
0.0527953
0.0438768
0.202056
0.226501
0.246136
0.258757
0.26533
0.266915
0.264349
0.258464
0.250419
0.241417
0.231273
0.220844
0.210469
0.200956
0.192754
0.186419
0.181524
0.17807
0.175135
0.171989
0.167834
0.162039
0.153939
0.143114
0.129663
0.113885
0.0965077
0.0778694
0.0621007
0.0512058
0.185304
0.207185
0.228294
0.243976
0.254073
0.2588
0.259
0.255875
0.250462
0.243058
0.234434
0.225521
0.216415
0.208048
0.200897
0.195616
0.191643
0.188796
0.186021
0.182626
0.177969
0.171611
0.163076
0.152087
0.138753
0.123259
0.106203
0.0878705
0.0715635
0.0591358
0.163756
0.184288
0.207089
0.225729
0.239207
0.246737
0.249819
0.249617
0.246647
0.241379
0.23473
0.227124
0.219442
0.21236
0.206413
0.202287
0.199299
0.197091
0.194535
0.190989
0.185964
0.179187
0.170361
0.159347
0.146276
0.131231
0.114723
0.0970371
0.0806929
0.0670832
0.143164
0.161743
0.184974
0.205671
0.222084
0.232183
0.238201
0.240737
0.240287
0.237228
0.232414
0.226416
0.220089
0.214325
0.209659
0.206716
0.204717
0.203155
0.200862
0.197267
0.19201
0.184972
0.176015
0.165131
0.152434
0.137987
0.122115
0.105268
0.089234
0.0746861
0.127102
0.141847
0.163871
0.186096
0.204315
0.216472
0.225122
0.230138
0.232007
0.231079
0.228046
0.223674
0.21876
0.21439
0.210949
0.209153
0.208102
0.207163
0.205173
0.201625
0.196287
0.189163
0.180253
0.169659
0.157468
0.143577
0.128399
0.112446
0.0968356
0.0817581
0.115692
0.125019
0.144367
0.16685
0.186554
0.201046
0.211607
0.218608
0.222439
0.223382
0.222094
0.219314
0.215843
0.212768
0.210543
0.209822
0.209642
0.209283
0.207621
0.204214
0.198953
0.191961
0.183303
0.173077
0.161335
0.148068
0.133848
0.118674
0.103456
0.0881539
0.109029
0.111986
0.127118
0.148318
0.168924
0.18563
0.198218
0.206954
0.212182
0.214688
0.214998
0.213719
0.211624
0.209799
0.208696
0.208931
0.209523
0.209675
0.208351
0.205194
0.200173
0.193422
0.185091
0.175327
0.164138
0.151585
0.138394
0.123947
0.109126
0.093751
0.109531
0.104136
0.113199
0.131084
0.151588
0.170238
0.18479
0.195152
0.20188
0.20556
0.207179
0.207245
0.206408
0.205725
0.205632
0.206681
0.207932
0.20854
0.207534
0.204655
0.199811
0.193322
0.185483
0.176427
0.165952
0.154354
0.142016
0.128294
0.113876
0.0985132
0.116576
0.104236
0.105314
0.117584
0.135566
0.155079
0.171357
0.18323
0.191369
0.196434
0.199111
0.200232
0.200488
0.200801
0.201552
0.203274
0.205064
0.206081
0.205398
0.202866
0.19847
0.192342
0.184955
0.176461
0.166887
0.156469
0.144852
0.13179
0.11775
0.102435
0.130698
0.112666
0.104815
0.109762
0.123148
0.141037
0.158128
0.171329
0.180803
0.18716
0.191041
0.193049
0.194154
0.195263
0.196688
0.198928
0.201135
0.202505
0.202147
0.200013
0.196105
0.19062
0.183778
0.175946
0.167357
0.157833
0.146949
0.1345
0.120808
0.105545
0.152111
0.130329
0.114614
0.109379
0.116111
0.129553
0.145715
0.159715
0.170346
0.177886
0.182894
0.185914
0.187713
0.189381
0.191294
0.193893
0.196392
0.198051
0.198015
0.196309
0.192951
0.188154
0.182103
0.175124
0.167437
0.158638
0.148409
0.13651
0.123124
0.107903
0.180418
0.15658
0.135231
0.12026
0.116153
0.122969
0.135507
0.149011
0.160289
0.168797
0.174816
0.178781
0.181387
0.183447
0.185666
0.188466
0.191132
0.19301
0.193299
0.192033
0.189286
0.185244
0.180211
0.174191
0.167205
0.159029
0.149354
0.137922
0.12479
0.109617
0.214667
0.189816
0.165182
0.142604
0.127539
0.123653
0.129639
0.14036
0.151203
0.160199
0.167004
0.171803
0.175172
0.17778
0.180188
0.183027
0.185755
0.187789
0.188407
0.187601
0.185564
0.182416
0.178337
0.173191
0.166842
0.159166
0.149929
0.13886
0.125904
0.110777
0.253847
0.228477
0.201978
0.174514
0.150138
0.134739
0.130502
0.135503
0.144083
0.152627
0.159781
0.165208
0.169257
0.172413
0.175217
0.178131
0.180874
0.183026
0.184016
0.183733
0.182351
0.179973
0.17671
0.172316
0.166533
0.159247
0.150316
0.139482
0.126595
0.111473
0.296761
0.271106
0.243379
0.212892
0.181965
0.156147
0.140826
0.136481
0.140268
0.146947
0.153685
0.159382
0.163965
0.167671
0.170968
0.174183
0.177096
0.1794
0.180693
0.180834
0.179988
0.178259
0.17573
0.171863
0.166487
0.159536
0.150772
0.140009
0.127025
0.111748
0.342144
0.316315
0.287618
0.255077
0.219871
0.186165
0.160222
0.145372
0.141473
0.144319
0.149607
0.155016
0.159919
0.16418
0.168089
0.171774
0.174989
0.177472
0.179003
0.179501
0.179107
0.177897
0.175834
0.172494
0.167508
0.160621
0.151756
0.14079
0.127445
0.11177
0.388957
0.363025
0.33353
0.299454
0.26143
0.222381
0.187888
0.162825
0.149915
0.146685
0.148982
0.153477
0.158446
0.163287
0.168008
0.17241
0.17609
0.178823
0.180536
0.181266
0.181165
0.180281
0.178532
0.175478
0.170715
0.163761
0.154302
0.142512
0.12829
0.111798
0.436756
0.410921
0.38096
0.345901
0.306183
0.263892
0.223441
0.189889
0.167943
0.157554
0.155377
0.157913
0.162741
0.168343
0.174327
0.179866
0.18421
0.187362
0.189178
0.189827
0.189529
0.188377
0.186247
0.18287
0.177781
0.170402
0.160036
0.146715
0.130486
0.112345
0.486964
0.461844
0.432235
0.397279
0.357352
0.314016
0.270492
0.231232
0.201887
0.184492
0.177364
0.177305
0.182075
0.189156
0.197543
0.205157
0.210648
0.214148
0.215623
0.21525
0.213342
0.210258
0.206136
0.200847
0.193938
0.184745
0.172407
0.156233
0.136438
0.114777
0.54604
0.52315
0.495839
0.463399
0.426193
0.385339
0.343033
0.302821
0.270322
0.248846
0.238494
0.237402
0.244015
0.255236
0.268874
0.280685
0.28808
0.291454
0.29089
0.286582
0.279393
0.270222
0.259751
0.248196
0.235246
0.220226
0.202021
0.179568
0.151911
0.123304
0.634039
0.616614
0.595601
0.570347
0.541341
0.509479
0.475974
0.443579
0.416593
0.398754
0.391575
0.395414
0.409219
0.429458
0.45217
0.470308
0.480066
0.482397
0.476975
0.464454
0.446292
0.424292
0.399909
0.373903
0.346259
0.316415
0.283019
0.244269
0.198534
0.152188
0.800248
0.791755
0.781225
0.76803
0.753467
0.738377
0.722861
0.706987
0.693775
0.687009
0.689512
0.703321
0.726414
0.755074
0.783622
0.804765
0.815207
0.816039
0.805981
0.78623
0.758218
0.724117
0.685611
0.64331
0.596912
0.545848
0.48849
0.421363
0.342253
0.261786
1.04488
1.0431
1.04838
1.05487
1.06183
1.06752
1.06761
1.06436
1.05974
1.05891
1.06588
1.08056
1.09971
1.12081
1.13755
1.14715
1.14986
1.14559
1.13368
1.11529
1.09153
1.06368
1.03228
0.996383
0.954265
0.904479
0.844485
0.76952
0.676264
0.57902
1.15167
1.15507
1.17639
1.19921
1.21369
1.21815
1.21437
1.20722
1.20079
1.20064
1.2054
1.21137
1.2148
1.21628
1.20967
1.19841
1.18846
1.17723
1.16548
1.15397
1.14396
1.13591
1.12934
1.12288
1.11429
1.10286
1.08721
1.06607
1.03887
0.999007
0.147666
0.169163
0.174788
0.176554
0.174908
0.170588
0.164358
0.156877
0.148589
0.13987
0.130921
0.122034
0.113273
0.105005
0.0973665
0.0907596
0.0854162
0.0823507
0.0820823
0.083251
0.0831834
0.0800125
0.0730528
0.0625358
0.0493547
0.0347716
0.0234718
0.0223721
0.0217535
0.0232869
0.234938
0.267417
0.275568
0.272945
0.264295
0.252379
0.238802
0.22456
0.210119
0.195848
0.181852
0.168368
0.155321
0.143136
0.131949
0.122208
0.114154
0.109945
0.110484
0.114072
0.116997
0.116309
0.11002
0.0979006
0.0810669
0.0614133
0.0419878
0.0324556
0.0335212
0.0314957
0.282752
0.319613
0.332562
0.332468
0.324804
0.3127
0.298065
0.28212
0.26549
0.248689
0.231962
0.215671
0.199847
0.185072
0.171665
0.160129
0.150682
0.145694
0.145848
0.149233
0.152025
0.1511
0.14402
0.130274
0.110778
0.0872755
0.0626936
0.0434021
0.0396083
0.0387311
0.310865
0.34632
0.361581
0.364512
0.359213
0.348869
0.335257
0.319675
0.302857
0.285433
0.267773
0.250361
0.233359
0.217486
0.203262
0.19121
0.181473
0.176249
0.175837
0.178285
0.180072
0.178261
0.170434
0.155852
0.135132
0.109739
0.0822542
0.0566687
0.044161
0.0400128
0.323336
0.354563
0.371908
0.378245
0.376079
0.368559
0.357074
0.343017
0.327142
0.310251
0.292795
0.275364
0.258251
0.242314
0.22822
0.216507
0.207162
0.20204
0.201004
0.20222
0.202639
0.199659
0.191102
0.176124
0.15509
0.129121
0.100386
0.0714296
0.0523258
0.0433274
0.323242
0.349133
0.367765
0.377641
0.379802
0.375873
0.367211
0.355519
0.341319
0.325806
0.309359
0.292721
0.276291
0.261066
0.247779
0.237019
0.228526
0.223717
0.222053
0.221946
0.220841
0.216577
0.207313
0.19219
0.171378
0.145674
0.116833
0.0865832
0.0633816
0.0503057
0.31674
0.337174
0.355249
0.367561
0.373487
0.373635
0.368654
0.359392
0.347264
0.333874
0.319034
0.303832
0.288695
0.274791
0.262816
0.253481
0.246168
0.241806
0.239571
0.238132
0.235487
0.229927
0.219981
0.204865
0.184596
0.159689
0.13151
0.101332
0.0759033
0.0596495
0.304591
0.318232
0.335218
0.349668
0.359287
0.363387
0.362268
0.356487
0.347649
0.336115
0.32294
0.309743
0.296359
0.28421
0.273992
0.266422
0.260511
0.256684
0.253949
0.251261
0.247148
0.240357
0.229781
0.214771
0.195242
0.171469
0.144474
0.115221
0.0888023
0.0700799
0.283833
0.292994
0.309319
0.32588
0.339051
0.347039
0.349783
0.347722
0.341961
0.333273
0.32296
0.311414
0.300007
0.289957
0.281818
0.276242
0.271862
0.268619
0.265478
0.261682
0.256241
0.248348
0.237245
0.222427
0.20379
0.181241
0.155523
0.127652
0.101322
0.0807249
0.256923
0.263172
0.279458
0.29822
0.314623
0.326274
0.332725
0.33433
0.331902
0.326257
0.318568
0.309499
0.300469
0.292575
0.286715
0.283256
0.280451
0.277823
0.27438
0.269648
0.263085
0.254281
0.242812
0.228318
0.210434
0.189062
0.164863
0.138555
0.112793
0.0909944
0.231508
0.234199
0.249386
0.269128
0.288019
0.302758
0.312629
0.317565
0.318441
0.315906
0.311019
0.304629
0.297997
0.292614
0.28904
0.287719
0.28646
0.284456
0.280828
0.275364
0.267939
0.258466
0.246876
0.232614
0.215408
0.19525
0.172857
0.147993
0.12305
0.100674
0.2096
0.207418
0.220377
0.24023
0.260879
0.278277
0.290997
0.298765
0.302578
0.303041
0.300979
0.297292
0.293209
0.290302
0.289071
0.289841
0.290042
0.288659
0.284974
0.278996
0.271025
0.26126
0.249488
0.235497
0.21902
0.200115
0.179352
0.155883
0.131858
0.109384
0.192524
0.184196
0.193741
0.212541
0.234078
0.253542
0.268732
0.279168
0.285468
0.288496
0.289095
0.288034
0.28649
0.286051
0.287068
0.289801
0.291345
0.290554
0.286967
0.280773
0.272412
0.262312
0.250646
0.23715
0.221531
0.204143
0.184554
0.162339
0.139212
0.116882
0.181042
0.166631
0.171251
0.187324
0.20849
0.229258
0.246497
0.259241
0.267903
0.273231
0.276055
0.277383
0.278268
0.280129
0.283235
0.287764
0.290544
0.29032
0.286807
0.280461
0.271968
0.2619
0.250505
0.237756
0.223262
0.207183
0.188618
0.167493
0.145194
0.123138
0.179225
0.158098
0.155509
0.166552
0.185418
0.206254
0.224888
0.239546
0.250272
0.257681
0.262594
0.265901
0.268919
0.272825
0.277835
0.283938
0.287837
0.288198
0.285002
0.278874
0.270506
0.260668
0.249755
0.237711
0.224549
0.209347
0.191669
0.171475
0.149909
0.128176
0.186025
0.161315
0.149749
0.152985
0.166936
0.185822
0.204684
0.220645
0.233064
0.242282
0.249047
0.254142
0.258888
0.2645
0.271149
0.278581
0.283467
0.284477
0.281694
0.275993
0.268147
0.258842
0.248663
0.237621
0.225301
0.210809
0.193846
0.174418
0.153472
0.132066
0.202098
0.174777
0.156199
0.149789
0.155973
0.169983
0.187114
0.203291
0.216809
0.227465
0.235805
0.242479
0.248683
0.255564
0.263536
0.272041
0.277783
0.279503
0.277276
0.272175
0.265122
0.256781
0.247674
0.237428
0.225655
0.21171
0.195287
0.176456
0.156011
0.134903
0.229389
0.200209
0.176086
0.160077
0.155095
0.161536
0.174063
0.188629
0.20222
0.213734
0.223285
0.231281
0.238765
0.246539
0.255506
0.264826
0.2713
0.273798
0.272291
0.268031
0.262126
0.255053
0.246811
0.237142
0.225767
0.212203
0.19615
0.177733
0.157661
0.136814
0.266977
0.23635
0.208256
0.184277
0.168245
0.163024
0.16804
0.178322
0.190329
0.201771
0.212009
0.221004
0.229561
0.23826
0.247851
0.257718
0.264837
0.268186
0.267667
0.264645
0.259838
0.25375
0.246191
0.236951
0.225839
0.212483
0.196611
0.178424
0.158579
0.137931
0.312754
0.280895
0.249863
0.220016
0.194403
0.17735
0.171174
0.174327
0.182577
0.192556
0.202722
0.212287
0.221758
0.231412
0.241737
0.251986
0.25979
0.264067
0.264625
0.262634
0.25876
0.253282
0.246149
0.237265
0.226268
0.212873
0.196927
0.178754
0.158958
0.138403
0.364511
0.331404
0.297917
0.263746
0.230903
0.203409
0.1856
0.178717
0.180593
0.18751
0.196593
0.206215
0.216459
0.227136
0.238417
0.249351
0.257896
0.262936
0.264449
0.263367
0.260255
0.255395
0.248629
0.239636
0.228036
0.214052
0.197596
0.179088
0.159064
0.138394
0.42026
0.385863
0.350175
0.312658
0.274614
0.239161
0.210978
0.193504
0.186947
0.188526
0.19542
0.204656
0.215529
0.227333
0.240216
0.252344
0.261791
0.267507
0.269819
0.269409
0.26663
0.261786
0.254823
0.245428
0.233021
0.217515
0.199618
0.180062
0.159296
0.138214
0.478801
0.443262
0.405752
0.365729
0.324134
0.283277
0.247261
0.220354
0.204953
0.200076
0.203189
0.211416
0.223086
0.236759
0.252104
0.266274
0.276877
0.283417
0.286238
0.285893
0.282527
0.276575
0.268198
0.257225
0.243235
0.2258
0.205393
0.183203
0.160542
0.138207
0.54069
0.50463
0.466195
0.424912
0.381557
0.337901
0.297231
0.263628
0.240739
0.229609
0.228461
0.235549
0.248653
0.265519
0.28545
0.303129
0.315592
0.322955
0.325654
0.323909
0.318014
0.308694
0.296522
0.281655
0.263902
0.242965
0.218698
0.192403
0.165273
0.139778
0.610324
0.575325
0.537882
0.497584
0.455112
0.411941
0.370649
0.334715
0.30815
0.293306
0.289782
0.297452
0.314305
0.337291
0.365085
0.388377
0.403506
0.411309
0.412278
0.406297
0.39424
0.377352
0.356954
0.333813
0.308074
0.279615
0.248178
0.2141
0.179273
0.147052
0.700504
0.669688
0.636638
0.601048
0.563549
0.525554
0.489209
0.457414
0.433841
0.421233
0.420504
0.433476
0.458179
0.491013
0.529181
0.559073
0.576523
0.583594
0.58034
0.566872
0.544558
0.515265
0.481218
0.443925
0.403977
0.361476
0.315938
0.267223
0.216273
0.170062
0.839411
0.81729
0.792882
0.766558
0.738938
0.711713
0.68658
0.665797
0.652076
0.647839
0.655803
0.677759
0.712017
0.754247
0.799533
0.831742
0.848246
0.852376
0.843582
0.822647
0.790982
0.750567
0.703459
0.651352
0.594837
0.533908
0.467924
0.395214
0.316598
0.242328
1.05986
1.04976
1.03855
1.0251
1.0105
0.99659
0.984292
0.975037
0.970803
0.974512
0.98922
1.01603
1.05303
1.09419
1.13208
1.15216
1.15896
1.15542
1.14184
1.1193
1.08904
1.05198
1.00857
0.958382
0.900052
0.832004
0.753691
0.661178
0.554051
0.447563
1.30611
1.30291
1.30985
1.31814
1.32099
1.3179
1.31092
1.30326
1.29855
1.30051
1.31134
1.32979
1.35232
1.37036
1.37579
1.36194
1.34669
1.32865
1.31087
1.29269
1.27606
1.26086
1.24613
1.22844
1.20389
1.16815
1.11465
1.04291
0.949817
0.849704
1.34783
1.35796
1.3802
1.40237
1.41599
1.41913
1.41212
1.40111
1.39216
1.38959
1.39197
1.39533
1.39551
1.38758
1.36599
1.3294
1.29988
1.27295
1.25262
1.23824
1.23162
1.2319
1.23836
1.24705
1.25415
1.25641
1.25245
1.24167
1.22094
1.19317
0.182304
0.207094
0.21205
0.21208
0.209378
0.204025
0.196594
0.18775
0.177954
0.167628
0.15695
0.14626
0.135572
0.125383
0.115868
0.107709
0.101613
0.10063
0.105965
0.113171
0.116196
0.112717
0.102906
0.087865
0.0687978
0.0473304
0.0258193
0.0230219
0.0215513
0.0232082
0.293709
0.33107
0.337892
0.334759
0.324976
0.31132
0.29566
0.279069
0.262058
0.244969
0.22782
0.210866
0.193932
0.177715
0.16249
0.149239
0.139393
0.139046
0.149287
0.163621
0.17312
0.173578
0.16367
0.144516
0.117958
0.0865019
0.0547165
0.035542
0.030178
0.0299128
0.357382
0.398497
0.411455
0.411483
0.402905
0.389101
0.372188
0.353438
0.333557
0.313065
0.292178
0.271265
0.250348
0.23035
0.2119
0.196039
0.184499
0.183948
0.194695
0.209784
0.219986
0.220811
0.210195
0.188913
0.158667
0.121545
0.0824362
0.0499643
0.038304
0.038157
0.398603
0.436084
0.452697
0.455979
0.450013
0.438059
0.422038
0.403271
0.382662
0.360868
0.338319
0.315467
0.292597
0.270782
0.251025
0.234312
0.222422
0.221678
0.231493
0.245151
0.254176
0.254351
0.24328
0.221462
0.190053
0.150717
0.107839
0.0667939
0.0457501
0.0407468
0.423262
0.455291
0.472907
0.47921
0.476694
0.467695
0.453722
0.436137
0.416072
0.394291
0.371417
0.347975
0.3245
0.302219
0.282396
0.265969
0.254546
0.253671
0.261893
0.273087
0.280013
0.278889
0.267378
0.245673
0.214488
0.175028
0.130876
0.0853491
0.0563216
0.0452101
0.433679
0.456579
0.474884
0.485731
0.487683
0.482419
0.471314
0.455774
0.437258
0.416506
0.394331
0.37135
0.348322
0.326642
0.307666
0.292383
0.281996
0.281026
0.287342
0.295603
0.299958
0.297097
0.285043
0.263716
0.233515
0.195223
0.151629
0.104628
0.0698199
0.0529891
0.431865
0.448944
0.466732
0.479831
0.485917
0.484936
0.477237
0.464346
0.448312
0.429411
0.408821
0.387176
0.365466
0.34526
0.327917
0.314456
0.30554
0.304473
0.308744
0.313911
0.315477
0.310649
0.297943
0.27709
0.248271
0.211983
0.169564
0.123093
0.0851169
0.0634086
0.423263
0.433307
0.449005
0.463829
0.473672
0.477011
0.473703
0.464995
0.451336
0.434342
0.416126
0.396568
0.376951
0.358898
0.343919
0.332817
0.325653
0.324444
0.326649
0.32878
0.327484
0.320652
0.307244
0.286911
0.259615
0.225148
0.184775
0.140142
0.100859
0.0753053
0.405359
0.409106
0.423133
0.439511
0.452859
0.460357
0.461625
0.45683
0.446941
0.433763
0.417964
0.400456
0.383571
0.368286
0.356262
0.347919
0.342616
0.341206
0.341401
0.340683
0.336598
0.32788
0.313813
0.293887
0.267691
0.235342
0.197668
0.155507
0.116147
0.0877008
0.380558
0.378187
0.390874
0.408791
0.425336
0.436894
0.442537
0.442072
0.436255
0.426621
0.414288
0.400499
0.38611
0.37405
0.365418
0.360084
0.356602
0.354951
0.353287
0.34989
0.343299
0.332915
0.318328
0.298481
0.273413
0.24322
0.208505
0.168783
0.130358
0.0999468
0.351108
0.344022
0.355218
0.37394
0.393169
0.408431
0.41829
0.421966
0.420448
0.41473
0.406276
0.395977
0.385171
0.376708
0.371768
0.369542
0.367723
0.365776
0.362404
0.356656
0.347956
0.336368
0.321038
0.301385
0.277471
0.249658
0.217106
0.179794
0.142801
0.111614
0.322973
0.310032
0.318919
0.337581
0.358677
0.377054
0.390647
0.398137
0.400716
0.399066
0.394641
0.388236
0.381292
0.376792
0.375618
0.376447
0.376051
0.373766
0.368892
0.361205
0.350986
0.338227
0.322436
0.303147
0.280556
0.254644
0.223752
0.188613
0.153217
0.122005
0.297667
0.278276
0.28395
0.301508
0.323533
0.344298
0.360979
0.372201
0.378499
0.380631
0.380214
0.377808
0.37496
0.374576
0.37721
0.380918
0.381655
0.379024
0.372921
0.363901
0.352422
0.338768
0.322918
0.304215
0.283084
0.258122
0.228648
0.195406
0.161619
0.13087
0.27599
0.251121
0.252548
0.267636
0.289331
0.311536
0.33066
0.345141
0.354865
0.360622
0.363816
0.365288
0.366667
0.370365
0.376762
0.383044
0.384671
0.381729
0.374851
0.364681
0.352327
0.33854
0.322934
0.305342
0.284974
0.260492
0.232049
0.200395
0.168122
0.13812
0.261661
0.232111
0.227427
0.238367
0.257973
0.280254
0.300954
0.317939
0.330756
0.339819
0.346407
0.351355
0.356801
0.364523
0.37451
0.383013
0.385334
0.382225
0.374641
0.364086
0.351699
0.338175
0.323289
0.306504
0.286168
0.261952
0.234209
0.203816
0.172899
0.143783
0.258195
0.225568
0.212227
0.216814
0.231924
0.252303
0.273237
0.291781
0.307008
0.318983
0.328601
0.336752
0.345892
0.357501
0.370752
0.381067
0.384012
0.380965
0.373417
0.362971
0.350999
0.338193
0.324094
0.307268
0.286818
0.262645
0.235325
0.205892
0.17615
0.14796
0.265229
0.23167
0.211638
0.206435
0.21419
0.230024
0.249206
0.267989
0.284691
0.298908
0.311187
0.32228
0.334578
0.349787
0.365901
0.377707
0.381273
0.37862
0.371669
0.361982
0.350961
0.338932
0.324879
0.307774
0.287045
0.262656
0.235512
0.206835
0.178079
0.15079
0.283435
0.249144
0.223783
0.209704
0.207792
0.216155
0.230998
0.248078
0.264989
0.280562
0.294975
0.308647
0.323947
0.342033
0.360612
0.373706
0.378035
0.376303
0.370667
0.362307
0.351982
0.339769
0.325777
0.308238
0.287035
0.2624
0.235225
0.206873
0.17891
0.15245