/*--------------------------------*- C++ -*----------------------------------*\
| =========                 |                                                 |
| \\      /  F ield         | OpenFOAM: The Open Source CFD Toolbox           |
|  \\    /   O peration     | Version:  5.0                                   |
|   \\  /    A nd           | Web:      www.OpenFOAM.org                      |
|    \\/     M anipulation  |                                                 |
\*---------------------------------------------------------------------------*/
FoamFile
{
    version     2.0;
    format      ascii;
    class       volScalarField;
    location    "1850/air";
    object      nut;
}
// * * * * * * * * * * * * * * * * * * * * * * * * * * * * * * * * * * * * * //

dimensions      [0 2 -1 0 0 0 0];

internalField   nonuniform List<scalar> 
243000
(
0.00014533
0.000147739
0.00014471
0.000140147
0.000134585
0.000128533
0.000122272
0.00011602
0.000109935
0.000104162
9.87841e-05
9.38536e-05
8.93436e-05
8.52852e-05
8.16725e-05
7.85749e-05
7.60457e-05
7.42408e-05
7.44325e-05
7.33562e-05
0.000337005
7.55429e-05
7.35295e-05
7.1713e-05
0.000317826
0.000308981
0.000307115
0.000287142
0.000271559
7.55871e-05
0.000633285
0.000670072
0.000677728
0.000676058
0.000668512
0.00065693
0.000642525
0.000626218
0.000608584
0.000590161
0.000571251
0.000552143
0.000532864
0.000513891
0.000495546
0.000478346
0.000462641
0.000449566
0.000436397
0.000433932
0.00042878
0.000416975
0.000410628
0.000396974
0.0003796
0.000357464
0.000329707
0.000299473
0.000279954
0.000311358
0.000683106
0.000720286
0.000730465
0.000729679
0.000722242
0.000710335
0.000695337
0.00067821
0.000659597
0.000640115
0.000620089
0.000599863
0.000579543
0.000559702
0.000540733
0.000523198
0.00050742
0.00049451
0.000484536
0.00047763
0.00047167
0.000464204
0.000454089
0.000439234
0.000419553
0.000394758
0.000365344
0.000330346
0.000302679
0.000315358
0.000705558
0.000744059
0.00075717
0.000758989
0.000753498
0.000743079
0.000729144
0.000712701
0.000694446
0.000675054
0.000654939
0.000634549
0.000614062
0.000594142
0.000575258
0.000558032
0.000542768
0.000530489
0.000521092
0.000513947
0.000507452
0.000499802
0.000489086
0.000473851
0.000453577
0.000427933
0.000397136
0.000360514
0.000329116
0.000319765
0.000709817
0.000748291
0.000766634
0.000772343
0.00076988
0.000761943
0.000749972
0.000735053
0.000717935
0.000699368
0.000679844
0.000659911
0.000639839
0.000620379
0.000602044
0.000585536
0.00057112
0.00055969
0.000550836
0.000543706
0.000536801
0.000528604
0.000517409
0.000501899
0.000481468
0.000455715
0.000424694
0.000387786
0.000354795
0.000332931
0.000701929
0.000740875
0.000763805
0.000774222
0.000775614
0.000770747
0.000761304
0.000748431
0.000732957
0.000715718
0.000697247
0.000678201
0.00065894
0.000640317
0.000622823
0.000607298
0.000593925
0.000583441
0.000575159
0.000568091
0.000560836
0.000552097
0.000540448
0.000524732
0.000504342
0.00047883
0.000448134
0.000411504
0.000377836
0.000350071
0.000684044
0.000725406
0.00075287
0.000767822
0.000773384
0.000772112
0.000765424
0.000754844
0.000741406
0.00072586
0.000708783
0.000690935
0.000672764
0.000655229
0.000638786
0.000624408
0.000612186
0.00060267
0.000594964
0.00058799
0.000580453
0.000571242
0.000559196
0.000543334
0.000523095
0.000497984
0.000467846
0.000431835
0.000397942
0.000367402
0.000657778
0.000703213
0.000735286
0.000754967
0.000764924
0.000767439
0.000764057
0.000756151
0.000744697
0.000731017
0.000715606
0.000699195
0.000682325
0.000666022
0.000650787
0.000637651
0.000626634
0.000618072
0.000610926
0.000604083
0.000596339
0.000586757
0.000574392
0.000558446
0.000538414
0.000513776
0.000484337
0.000449304
0.000415501
0.000382988
0.000625261
0.000675685
0.000712573
0.000737049
0.000751534
0.00075794
0.000758004
0.000753026
0.000744222
0.000732489
0.000718628
0.000703802
0.00068837
0.000673412
0.000659475
0.000647628
0.000637821
0.000630176
0.000623575
0.000616898
0.000609035
0.000599187
0.0005866
0.000570633
0.000550849
0.000526733
0.000498003
0.000464018
0.000430473
0.000396698
0.000593105
0.000646211
0.00068667
0.000715425
0.00073429
0.000744654
0.000748245
0.000746386
0.000740214
0.000730744
0.000718909
0.000705491
0.00069151
0.000677961
0.000665365
0.000654811
0.000646182
0.000639408
0.00063333
0.000626854
0.000618956
0.000608957
0.000596252
0.000580339
0.000560843
0.000537304
0.000509072
0.000476372
0.000443291
0.000408835
0.000562936
0.000616102
0.000660052
0.000692379
0.000714406
0.000728496
0.000735566
0.000736878
0.000733456
0.000726329
0.000716439
0.000704848
0.000692336
0.000680124
0.000668872
0.000659579
0.00065207
0.00064611
0.000640536
0.000634294
0.000626446
0.000616407
0.000603695
0.00058792
0.000568804
0.000545641
0.000517896
0.000486639
0.000454265
0.000419582
0.000538305
0.000585799
0.000632247
0.000668386
0.000693988
0.000710881
0.000720788
0.000725078
0.00072444
0.000719715
0.000711884
0.000702033
0.000691085
0.000680331
0.000670346
0.000662248
0.000655774
0.000650579
0.000645481
0.000639505
0.000631787
0.000621822
0.000609218
0.000593706
0.000574864
0.000552059
0.000524777
0.000495079
0.000463582
0.00042902
0.000524507
0.000557375
0.000603306
0.000642976
0.00067252
0.000692701
0.000705233
0.000711699
0.000713625
0.000711298
0.00070556
0.000697514
0.000688128
0.000678771
0.000670056
0.000663082
0.000657561
0.000653055
0.000648415
0.000642733
0.000635221
0.000625458
0.00061308
0.000597781
0.000579232
0.000556788
0.00053032
0.00050204
0.000471459
0.000437212
0.000526916
0.000535837
0.000574572
0.000616075
0.000649604
0.000673539
0.000689121
0.000697983
0.000701713
0.000701502
0.000697793
0.000691563
0.000683738
0.000675745
0.000668244
0.00066231
0.000657619
0.000653756
0.00064956
0.000644225
0.000637002
0.000627448
0.000615295
0.000600283
0.000582061
0.000560004
0.00053488
0.000507814
0.000478103
0.000444263
0.000547517
0.000529022
0.000550145
0.000588676
0.000625161
0.000653068
0.000672138
0.000683754
0.000689576
0.000690962
0.000688953
0.000684437
0.000678153
0.000671475
0.00066512
0.00066014
0.000656207
0.000652903
0.000649101
0.000644031
0.000637057
0.000627791
0.00061595
0.000601295
0.000583473
0.0005619
0.000538339
0.000512483
0.000483625
0.000450261
0.000581997
0.00054446
0.000538032
0.000564116
0.00059998
0.000631224
0.000654028
0.000668778
0.000677011
0.000680215
0.000679605
0.000676449
0.000671587
0.000666161
0.000660876
0.000656761
0.000653501
0.000650697
0.000647282
0.000642556
0.000635878
0.000626888
0.000615341
0.000601009
0.000583573
0.000563227
0.000540931
0.000516174
0.000488124
0.000455295
0.000623971
0.000580306
0.000548195
0.00054968
0.000576844
0.00060867
0.000634773
0.000652884
0.000663844
0.000669119
0.000670094
0.000668057
0.0006643
0.000660003
0.000655691
0.000652352
0.000649692
0.00064733
0.000644282
0.000639899
0.000633595
0.000624951
0.000613736
0.000599764
0.000582828
0.000563848
0.000542728
0.000518975
0.000491674
0.000459418
0.000668503
0.00062649
0.00058183
0.000555124
0.000561928
0.000587693
0.000614952
0.0006361
0.000649968
0.00065756
0.000660296
0.000659566
0.000656686
0.000653224
0.000649748
0.000647091
0.000644954
0.000642988
0.000640293
0.000636257
0.000630335
0.000622121
0.000611295
0.000597751
0.000581814
0.0005639
0.000543825
0.000520973
0.00049435
0.000462697
0.000710183
0.000672811
0.000627823
0.00058394
0.000563259
0.0005731
0.000596344
0.00061891
0.000635435
0.000645472
0.000650135
0.00065087
0.000649026
0.00064614
0.000643264
0.000641165
0.000639469
0.000637855
0.000635504
0.000631822
0.00062629
0.000618534
0.000608193
0.000595406
0.000580502
0.000563535
0.000544344
0.000522267
0.000496228
0.000465165
0.000750322
0.000717
0.000675923
0.000627738
0.00058611
0.000571346
0.000582541
0.000602657
0.000620639
0.000632918
0.000639587
0.000641895
0.000641233
0.000639083
0.000636583
0.000634803
0.000633442
0.000632129
0.000630104
0.000626785
0.000621657
0.000614386
0.000604775
0.000592933
0.000578956
0.000562839
0.000544374
0.000522958
0.000497398
0.000466894
0.000788838
0.00075865
0.000721641
0.000675682
0.000625097
0.000587712
0.000578516
0.00058993
0.000606563
0.000620211
0.000628719
0.000632634
0.000633249
0.000631978
0.000629997
0.000628372
0.000627125
0.000626035
0.000624304
0.000621344
0.000616661
0.000610095
0.000601355
0.000590391
0.00057726
0.000561913
0.000544087
0.000523182
0.000497976
0.00046799
0.000825521
0.000797683
0.000763874
0.000721586
0.000670406
0.000619665
0.000588571
0.000584231
0.00059499
0.000608058
0.000617776
0.000623166
0.000625072
0.000624792
0.000623463
0.000622141
0.000621054
0.000620058
0.000618561
0.000615991
0.000611867
0.000605966
0.000598013
0.000587879
0.000575544
0.000560899
0.000543634
0.000523115
0.000498113
0.000468578
0.000860668
0.000834377
0.000802785
0.000763649
0.000715021
0.000659812
0.000612332
0.000588879
0.00058832
0.000597686
0.000607294
0.00061372
0.000616814
0.000617561
0.000617001
0.000616121
0.000615287
0.000614449
0.000613182
0.000610974
0.000607367
0.000602101
0.000594891
0.000585559
0.000573994
0.000560016
0.000543238
0.000522987
0.00049803
0.000468841
0.000893494
0.000868274
0.000838289
0.000801631
0.000756065
0.000701319
0.000645222
0.000604657
0.000589012
0.000590832
0.000598235
0.000604807
0.00060879
0.000610512
0.000610799
0.000610494
0.000610014
0.000609408
0.000608388
0.000606525
0.000603402
0.000598732
0.000592231
0.000583672
0.000572855
0.000559514
0.00054317
0.000523097
0.000497998
0.000469043
0.000923295
0.00089909
0.000870507
0.000835868
0.000793154
0.000740894
0.000682266
0.000629978
0.000598806
0.000589676
0.000592261
0.000597599
0.000601898
0.000604441
0.000605619
0.000606035
0.00060604
0.000605751
0.000605001
0.000603456
0.000600744
0.000596579
0.000590672
0.000582741
0.000572573
0.00055985
0.000543979
0.000524022
0.000498578
0.000469714
0.000951236
0.000927992
0.000900699
0.000867921
0.00082789
0.000778836
0.000721357
0.000663322
0.000619435
0.000597795
0.000592848
0.000595201
0.000599061
0.00060226
0.00060447
0.000605834
0.000606513
0.000606637
0.00060612
0.000604734
0.000602201
0.000598282
0.000592731
0.000585264
0.000575572
0.000563266
0.000547605
0.000527426
0.00050104
0.000471891
0.000980162
0.000958238
0.000932536
0.00090186
0.000864776
0.000819689
0.000765999
0.000707858
0.00065669
0.000623905
0.000610143
0.000608011
0.000610786
0.000614772
0.000618502
0.000621259
0.000622821
0.000623293
0.000622656
0.000620819
0.000617691
0.000613183
0.000607153
0.000599356
0.000589422
0.000576844
0.000560717
0.000539438
0.000511022
0.000479864
0.00101734
0.000997558
0.00097443
0.000947244
0.000915133
0.00087692
0.000831636
0.000780884
0.000731827
0.000695245
0.000676029
0.000670666
0.000673078
0.000678728
0.000684679
0.000689034
0.000691071
0.000690996
0.000688842
0.000684801
0.000679084
0.000671925
0.000663396
0.000653307
0.000641097
0.000626196
0.000607641
0.000583268
0.000550167
0.000515265
0.00109038
0.00107532
0.00105903
0.00104135
0.00102179
0.000999404
0.000972923
0.000942526
0.000910896
0.000885638
0.000871765
0.000868618
0.00087233
0.000879644
0.000886581
0.000890858
0.000891537
0.000889274
0.000884318
0.000876949
0.000867722
0.000857102
0.000845428
0.000832437
0.000816538
0.000797809
0.00077636
0.000749143
0.000713407
0.000675766
0.00133026
0.00132704
0.00132782
0.00132832
0.00132763
0.00132512
0.00131993
0.00131233
0.00130045
0.00128972
0.0012826
0.00127918
0.00127859
0.00128155
0.00128438
0.00128609
0.00128534
0.00128436
0.00128288
0.00128142
0.00127983
0.00127853
0.00127741
0.00127597
0.00126893
0.00125928
0.00125012
0.001236
0.00121683
0.00119457
0.00017622
0.000182288
0.000179835
0.000174708
0.000168065
0.000160622
0.000152857
0.000145113
0.000137591
0.000130445
0.000123735
0.000117545
0.000111878
0.000106847
0.000102473
9.88965e-05
9.61864e-05
9.45887e-05
9.41363e-05
9.46814e-05
9.52694e-05
9.49917e-05
9.33067e-05
8.95128e-05
8.34292e-05
7.49454e-05
0.000311446
0.000295987
7.36557e-05
7.90309e-05
0.000683016
0.000770315
0.000745608
0.000693894
0.000636286
0.000581854
0.000533384
0.000490864
0.000453566
0.000421169
0.00039276
0.000368089
0.000345963
0.000326795
0.000309831
0.000295295
0.000281905
0.000271599
0.000264546
0.000261772
0.000262741
0.000265372
0.000264987
0.000257569
0.000242631
0.000219708
0.000240236
0.000289455
0.000318465
0.000320765
0.00108506
0.00125399
0.00126322
0.00121039
0.0011353
0.00105574
0.000980281
0.000911274
0.000849021
0.000793849
0.000744695
0.000701497
0.000662395
0.000628322
0.00059834
0.000572127
0.000546816
0.000525271
0.000506554
0.00049289
0.000485486
0.000482337
0.000476377
0.000461537
0.000433559
0.000392131
0.000356086
0.000340281
0.000375618
0.00040558
0.00134655
0.00157334
0.0016169
0.00158519
0.00151746
0.0014354
0.00135133
0.00127063
0.00119525
0.00112665
0.00106429
0.00100874
0.000958334
0.000914146
0.000875766
0.000842218
0.00080925
0.000779404
0.000750288
0.000724977
0.00070629
0.000693564
0.000679212
0.000654627
0.000614816
0.000558286
0.000493119
0.000429992
0.0004155
0.00042613
0.00148044
0.00172056
0.00181885
0.0018305
0.00178569
0.00171526
0.00163483
0.00155372
0.00147459
0.00140072
0.00133217
0.0012704
0.001214
0.00116465
0.00112255
0.00108593
0.00104913
0.00101406
0.000976815
0.000941379
0.000911879
0.000889044
0.000865322
0.000831681
0.000782617
0.000715522
0.000634094
0.000542156
0.000483425
0.000460831
0.00155613
0.00179754
0.00193059
0.00197487
0.00196047
0.00190954
0.00183976
0.00176692
0.0016905
0.00161817
0.00154914
0.00148619
0.00142857
0.00137841
0.00133631
0.00129995
0.00126234
0.00122424
0.00118092
0.00113723
0.00109832
0.00106609
0.00103346
0.000992348
0.000936428
0.000862295
0.000771928
0.000665212
0.000576517
0.000524087
0.0015859
0.00182173
0.00197093
0.00204367
0.00205893
0.00203486
0.00198679
0.00192047
0.00184929
0.00178518
0.00172005
0.0016601
0.00160524
0.00155799
0.00151855
0.00148533
0.00144897
0.00140944
0.00136187
0.00131169
0.00126502
0.00122397
0.00118411
0.00113718
0.00107661
0.000998335
0.000903016
0.000789778
0.000682509
0.000603886
0.0015751
0.00178814
0.00195025
0.00205012
0.00209582
0.00209819
0.00207215
0.00202446
0.00197103
0.00191087
0.00184992
0.00179701
0.00174772
0.00170615
0.00167175
0.00164361
0.00161018
0.00157051
0.00152026
0.00146534
0.00141232
0.001365
0.00131889
0.00126722
0.00120367
0.00112344
0.00102629
0.000910659
0.000792244
0.000691145
0.00149647
0.00169816
0.00187594
0.00200358
0.00208092
0.00211086
0.00210913
0.00208478
0.00204706
0.00199991
0.00195158
0.00190242
0.00185997
0.00182581
0.00179847
0.00177678
0.00174746
0.00170881
0.00165717
0.00159942
0.00154309
0.00149092
0.00144034
0.00138462
0.00131878
0.00123805
0.00114152
0.00102596
0.000900363
0.000779544
0.00136796
0.00155795
0.00175508
0.00191113
0.00202218
0.00208161
0.00210736
0.00210705
0.00208899
0.00205735
0.00202048
0.00198124
0.00194608
0.00191987
0.00190113
0.00188666
0.00186241
0.00182571
0.00177389
0.00171493
0.00165556
0.00160043
0.00154687
0.00148995
0.00142296
0.00134354
0.00124813
0.00113408
0.0010043
0.000865286
0.00124204
0.00139371
0.00158977
0.00177725
0.00192691
0.00201698
0.00207264
0.00209763
0.00210056
0.00208635
0.00206279
0.00203514
0.00200896
0.00199252
0.00198205
0.00197501
0.00195656
0.00192255
0.00187181
0.00181296
0.0017524
0.00169474
0.00164011
0.0015834
0.00151891
0.00143906
0.00134477
0.00123188
0.00109851
0.000945788
0.0011387
0.00123401
0.00140744
0.0016071
0.00178709
0.00192027
0.00200939
0.00206114
0.00208571
0.00209001
0.00208154
0.00206678
0.00205161
0.00204431
0.00204301
0.00204365
0.00203121
0.00200066
0.00195212
0.0018946
0.0018345
0.00177695
0.00172255
0.00166602
0.00160191
0.00152341
0.00143316
0.00131976
0.00118211
0.00101918
0.00106732
0.00110062
0.00123277
0.00142309
0.00161964
0.00178747
0.00191487
0.00200109
0.00204791
0.00207147
0.00207935
0.00207868
0.00207544
0.00207837
0.00208596
0.00209415
0.00208786
0.00206116
0.00201575
0.00196111
0.00190323
0.00184638
0.00179103
0.00173546
0.00167261
0.00159739
0.00151081
0.00139608
0.00125449
0.00108342
0.00105339
0.0010119
0.00108824
0.0012469
0.00144211
0.00163227
0.00179113
0.00191017
0.00198932
0.00203373
0.00205866
0.00207299
0.00208243
0.00209603
0.00211254
0.00212795
0.00212795
0.00210588
0.00206392
0.00201226
0.0019542
0.00189678
0.00184263
0.00179092
0.00173117
0.00166138
0.00157568
0.00146013
0.00131508
0.00113745
0.00108783
0.000991697
0.000999131
0.00110435
0.00127442
0.0014695
0.00164932
0.00179536
0.00190404
0.00197768
0.00202232
0.00205156
0.00207436
0.00209897
0.0021238
0.00214641
0.00215291
0.0021364
0.00209866
0.00205096
0.00199687
0.00193944
0.0018848
0.00183234
0.00177806
0.00171605
0.00162919
0.00151227
0.00136396
0.00118087
0.00117613
0.00103494
0.000973834
0.00101707
0.00113998
0.0013162
0.00150177
0.00166619
0.00179935
0.00189958
0.00196971
0.00201668
0.00205287
0.00208834
0.00212126
0.00215095
0.00216412
0.00215397
0.00212127
0.00207832
0.00202826
0.00197534
0.00192098
0.00186862
0.00181879
0.00175839
0.00167131
0.001553
0.00140157
0.00121384
0.00132503
0.00115145
0.00103222
0.000994806
0.00106047
0.0011913
0.0013627
0.00153337
0.00168334
0.00180552
0.00189888
0.00196814
0.0020196
0.00206567
0.00210652
0.00214312
0.00216302
0.00215986
0.00213305
0.00209548
0.0020503
0.00200208
0.00195197
0.00190217
0.00185347
0.00179141
0.00170358
0.00158336
0.0014288
0.00123695
0.00153148
0.00133742
0.00117379
0.00106615
0.00104194
0.0011166
0.00124924
0.0014093
0.00156522
0.0017024
0.00181491
0.00190421
0.00197464
0.00203246
0.0020813
0.00212462
0.0021512
0.00215541
0.00213565
0.002104
0.00206474
0.002022
0.00197922
0.00193324
0.00188171
0.00181666
0.00172689
0.00160445
0.00144673
0.00125125
0.00178687
0.00158135
0.00138791
0.0012235
0.00112024
0.00110444
0.00118074
0.00130847
0.0014556
0.00159816
0.00172368
0.00182917
0.00191638
0.00198987
0.00204761
0.00209732
0.00213055
0.0021425
0.00213095
0.00210606
0.00207426
0.00203882
0.00200279
0.00195945
0.00190486
0.00183563
0.00174283
0.00161774
0.00145669
0.00125792
0.00207821
0.00186719
0.00165485
0.00145047
0.00128048
0.00118042
0.0011702
0.00124638
0.00136667
0.00150174
0.00163186
0.00174797
0.00184833
0.00193496
0.0020053
0.00206307
0.00210315
0.00212316
0.00212122
0.00210452
0.00208063
0.00205223
0.00202118
0.00197938
0.00192283
0.00184962
0.0017536
0.00162518
0.00146028
0.00125824
0.00238812
0.00217554
0.00195172
0.00172109
0.00150258
0.00132989
0.001237
0.00123446
0.00131017
0.00142287
0.00154658
0.00166583
0.00177388
0.00186975
0.00195019
0.0020174
0.0020661
0.0020947
0.00210255
0.00209484
0.00207911
0.00205732
0.00203121
0.00199017
0.00193413
0.00186051
0.00176138
0.0016289
0.00145935
0.00125337
0.00269379
0.00248251
0.00225294
0.00200683
0.00175694
0.00153073
0.00136496
0.00128428
0.00129324
0.00136872
0.00147417
0.00158678
0.00169489
0.0017937
0.00187865
0.00195056
0.00200537
0.00204174
0.00205959
0.00206254
0.00205621
0.00204281
0.00202175
0.00198837
0.00193728
0.00186328
0.00176283
0.00162849
0.00145489
0.0012446
0.00296618
0.00275909
0.00252961
0.00227761
0.00201135
0.0017516
0.00153131
0.00138132
0.00132195
0.00134224
0.00141402
0.00150908
0.00160655
0.00169806
0.00177722
0.00184544
0.00189989
0.00193985
0.00196635
0.00198144
0.00198905
0.00198977
0.00198271
0.00196303
0.00192423
0.00185727
0.00175544
0.00161894
0.00144538
0.00123216
0.00316878
0.00297067
0.00274873
0.00250096
0.00223222
0.0019572
0.00170259
0.00149923
0.00137622
0.0013368
0.00135928
0.00141825
0.00148922
0.00155797
0.00161781
0.00167073
0.00171545
0.00175455
0.00178726
0.0018156
0.0018405
0.00186106
0.00187512
0.00187791
0.00186203
0.00181748
0.00173074
0.00159932
0.00142474
0.00121401
0.00325999
0.00307889
0.00287433
0.00264229
0.00238449
0.00211044
0.00184015
0.00160133
0.00142543
0.00132546
0.00129039
0.00129655
0.0013251
0.00135896
0.0013931
0.00142657
0.0014588
0.00149187
0.00152614
0.00156244
0.0015997
0.00163739
0.00167305
0.00170179
0.00171601
0.00170502
0.00165447
0.00154804
0.00139011
0.00118634
0.00320735
0.00305544
0.0028805
0.00267684
0.00244355
0.0021864
0.00192066
0.00167063
0.00146594
0.00132359
0.00124139
0.00120282
0.00119766
0.00121044
0.00123416
0.00126104
0.00128627
0.00131113
0.00133788
0.0013652
0.00139433
0.00142616
0.00146003
0.00149301
0.00151931
0.00152973
0.00151054
0.00144454
0.00131427
0.00114635
0.00302608
0.00291843
0.00278839
0.00262912
0.00243845
0.00222148
0.00199205
0.0017724
0.00158599
0.0014478
0.00135726
0.00131035
0.00130075
0.00131487
0.00134322
0.00137253
0.00139488
0.00141314
0.00142768
0.00143801
0.00144587
0.00145313
0.00146054
0.00146705
0.0014693
0.00146097
0.00143093
0.00136419
0.00124189
0.00108208
0.0028537
0.00279986
0.00272364
0.00261963
0.00248647
0.00233101
0.00216623
0.00200769
0.00187008
0.00176278
0.00168957
0.00165369
0.00164793
0.001663
0.00168959
0.0017162
0.00173519
0.00175081
0.00176056
0.00176526
0.00176569
0.00176297
0.00175724
0.00174671
0.00172793
0.00169545
0.00163888
0.00154169
0.00138736
0.00118974
0.00277308
0.00275393
0.00272919
0.00268366
0.00261365
0.00252477
0.00242202
0.00231856
0.00222299
0.00214297
0.00208562
0.00205295
0.00204086
0.0020447
0.00205679
0.00207204
0.00208458
0.00209759
0.0021087
0.00211911
0.00212889
0.00213776
0.00214501
0.00214749
0.00214167
0.00212316
0.00208266
0.00200534
0.00188056
0.00172277
0.0027642
0.00276359
0.00276281
0.00274542
0.00270896
0.00266213
0.00260485
0.00254221
0.00247955
0.00242678
0.00238285
0.00235098
0.00233099
0.00232247
0.00232046
0.00232585
0.00233354
0.00234528
0.00236035
0.00237949
0.00240193
0.00242676
0.00245133
0.00247404
0.00249251
0.00250554
0.00250608
0.00248682
0.00245285
0.00240468
0.000202802
0.000208966
0.000204672
0.000198437
0.000190808
0.000182358
0.000173581
0.000164842
0.000156359
0.0001483
0.000140722
0.000133722
0.000127281
0.000121552
0.000116565
0.00011254
0.000109627
0.000108518
0.000109652
0.000112186
0.000114326
0.00011469
0.000112433
0.000107011
9.8023e-05
8.50242e-05
6.69315e-05
0.000303538
7.49072e-05
8.05143e-05
0.000878693
0.00100726
0.00101074
0.00095534
0.000883198
0.000812044
0.00074725
0.000690287
0.000640016
0.000595917
0.00055632
0.000520966
0.000487671
0.000457667
0.000429293
0.000403307
0.000377991
0.000361198
0.00035496
0.000360097
0.000372372
0.000384967
0.000387254
0.000371748
0.000338366
0.000292628
0.000239849
0.000290124
0.000276495
0.000318855
0.00141031
0.00165672
0.00171667
0.00167701
0.00159432
0.001498
0.00140142
0.00131094
0.00122765
0.0011522
0.00108284
0.00101969
0.000959628
0.000904895
0.000853801
0.000805772
0.000757037
0.000719746
0.000695085
0.000687009
0.000693272
0.000704656
0.00070019
0.000671267
0.000614066
0.000530681
0.000433611
0.000377165
0.000375393
0.000444299
0.0018038
0.00209815
0.00219901
0.00219082
0.00212174
0.00202711
0.00192301
0.00181939
0.00171991
0.00162701
0.00153981
0.00145929
0.0013826
0.00131226
0.00124743
0.00118618
0.00112248
0.00106833
0.00102542
0.00100058
0.000993699
0.000995501
0.000984295
0.00094424
0.000868585
0.000759492
0.000628556
0.000504715
0.000452751
0.00048681
0.00206714
0.00236877
0.00250971
0.00253882
0.00249319
0.00241332
0.00231521
0.0022118
0.00210779
0.00200816
0.00191283
0.00182398
0.00173886
0.001661
0.00159033
0.00152292
0.00145012
0.00138211
0.00132265
0.00128126
0.00126076
0.00125184
0.00123241
0.00118447
0.00109852
0.000974573
0.000822531
0.000659867
0.000554826
0.000539728
0.00222672
0.00251314
0.00268188
0.00274898
0.00274139
0.00268456
0.00259984
0.00250614
0.00240511
0.00230718
0.00221104
0.00212082
0.00203428
0.00195572
0.00188489
0.00181649
0.00173807
0.00165836
0.00158396
0.00152805
0.00149418
0.0014749
0.00144876
0.00139548
0.00130509
0.00117476
0.00101216
0.000828312
0.000684438
0.000625282
0.00234518
0.00261073
0.00278238
0.00287151
0.00289274
0.00286602
0.00280472
0.00271943
0.00262451
0.00253632
0.00244474
0.00235888
0.00227666
0.00220306
0.0021362
0.00207061
0.00198868
0.001899
0.00181183
0.0017431
0.00169741
0.00166831
0.00163645
0.00158176
0.0014905
0.00135986
0.00119473
0.00100159
0.000832075
0.000736526
0.00242602
0.00264112
0.00280782
0.00291514
0.00296443
0.00296639
0.00293162
0.00286848
0.00279604
0.00271114
0.00262215
0.00254655
0.00247245
0.00240804
0.00234916
0.00228886
0.00220494
0.00210698
0.00200926
0.00192968
0.00187394
0.00183588
0.00179885
0.00174465
0.00165671
0.00153053
0.00136938
0.00117594
0.000988547
0.000861789
0.0024157
0.00260027
0.00276478
0.00289093
0.00296873
0.00300034
0.00299449
0.00295724
0.00290295
0.00283521
0.00276602
0.00269267
0.00262751
0.0025757
0.00252784
0.00247433
0.00238977
0.00228523
0.00217956
0.00209127
0.00202683
0.00198101
0.00193979
0.00188665
0.00180698
0.00168677
0.00152998
0.00134131
0.00114724
0.000991235
0.00233334
0.00249454
0.00266078
0.0028085
0.00291566
0.00297875
0.00300262
0.00299425
0.00296255
0.00291484
0.0028607
0.00280189
0.00275101
0.00271045
0.00267563
0.00262966
0.00254565
0.00243677
0.00232511
0.00223103
0.0021599
0.00210695
0.00206309
0.00201232
0.0019379
0.00182502
0.00167682
0.0014957
0.00129952
0.0011193
0.00222733
0.00235499
0.00251349
0.00267605
0.00281308
0.00290965
0.0029657
0.00298618
0.00298082
0.00295555
0.00291989
0.00287908
0.00284223
0.00281812
0.00279536
0.00275719
0.00267507
0.00256436
0.00244956
0.00235218
0.00227624
0.00221816
0.00217317
0.00212196
0.00205072
0.00194762
0.00181089
0.00163794
0.00144304
0.00124665
0.00211993
0.00219472
0.00233409
0.00250494
0.00266844
0.00279942
0.00289003
0.00294101
0.00296272
0.00296239
0.00294776
0.00292661
0.00290719
0.00289889
0.00288921
0.00285922
0.00278044
0.00267032
0.00255555
0.00245692
0.00237877
0.0023193
0.00226898
0.00221666
0.00214831
0.00205404
0.00192905
0.00176447
0.00157233
0.00136618
0.00202768
0.0020293
0.00213801
0.0023066
0.00249001
0.00265296
0.0027785
0.00286365
0.00291456
0.00293972
0.002948
0.00294804
0.0029477
0.00295621
0.00295988
0.00293799
0.00286427
0.00275656
0.00264544
0.00254852
0.00246771
0.00240291
0.0023494
0.00229793
0.00223309
0.00215001
0.00203273
0.00187536
0.0016859
0.00147277
0.0019561
0.00188602
0.00194921
0.00209883
0.0022898
0.00247813
0.0026367
0.00275605
0.00283888
0.00289246
0.00292447
0.00294647
0.00296631
0.00299149
0.00300873
0.00299538
0.00292924
0.00282591
0.00271806
0.00262156
0.00253931
0.00247229
0.00241639
0.00236736
0.002308
0.00223331
0.00212375
0.00197132
0.00178362
0.00156506
0.00195771
0.0018052
0.00180075
0.00190771
0.00208638
0.00228692
0.00247211
0.00262346
0.00273827
0.00282144
0.00288038
0.00292475
0.00296487
0.00300649
0.00303775
0.0030336
0.00297748
0.0028813
0.00278062
0.00268874
0.00260641
0.00253754
0.00248052
0.00242972
0.00237685
0.00230496
0.00220032
0.00205224
0.00186547
0.0016423
0.00202189
0.00182269
0.00172884
0.00176712
0.00190655
0.00209769
0.00229627
0.00247321
0.00261763
0.00273011
0.00281644
0.00288522
0.00294546
0.00300324
0.00304824
0.00305452
0.00301054
0.00292487
0.00283216
0.00274638
0.00266835
0.00259994
0.00254325
0.00249095
0.00243807
0.00236652
0.00226394
0.00211928
0.00193202
0.00170443
0.00216038
0.00192404
0.00176211
0.00171411
0.0017854
0.00193633
0.00212647
0.00231613
0.00248368
0.00262275
0.00273558
0.0028287
0.00290975
0.00298312
0.0030414
0.00305945
0.0030294
0.00295723
0.002874
0.00279532
0.00272347
0.00265979
0.00260377
0.00254853
0.002492
0.00241866
0.00231564
0.00217232
0.00198364
0.00175169
0.0023903
0.00212891
0.00191134
0.00177564
0.00174572
0.00183351
0.00198577
0.0021674
0.00234581
0.00250499
0.00264113
0.00275698
0.0028579
0.00294656
0.00301758
0.00304828
0.00303347
0.00297764
0.00290555
0.00283594
0.00277183
0.00271419
0.00265818
0.00259938
0.00253809
0.00246155
0.00235624
0.00221159
0.00202098
0.00178473
0.00269517
0.0024196
0.00216318
0.00195459
0.00182896
0.00180994
0.00190087
0.00204568
0.00221596
0.00238391
0.0025369
0.00267142
0.00278912
0.0028926
0.00297418
0.00301759
0.00301853
0.00298194
0.00292294
0.0028648
0.0028087
0.00275634
0.00270026
0.0026398
0.00257494
0.00249498
0.00238626
0.00223855
0.00204517
0.00180451
0.00304401
0.00276231
0.00248172
0.00222127
0.00201321
0.00189357
0.00188212
0.00196945
0.00210691
0.00226709
0.00242632
0.00257174
0.00270148
0.00281458
0.00290281
0.00295659
0.0029729
0.0029562
0.00291408
0.0028682
0.00282164
0.00277286
0.00272173
0.00266762
0.00260289
0.00251986
0.00240671
0.00225471
0.00205711
0.00181214
0.00339921
0.00311639
0.00282257
0.00252963
0.00226255
0.00205674
0.00194664
0.00194314
0.00202616
0.00216123
0.00231023
0.00245375
0.00258562
0.00269983
0.00278667
0.00284546
0.00287528
0.00287715
0.00285545
0.0028259
0.00279383
0.00275964
0.00272036
0.00267259
0.00261085
0.00253262
0.0024188
0.00226331
0.00206006
0.00180914
0.00371937
0.00343947
0.00314134
0.00283198
0.00252924
0.00226215
0.00206736
0.00197242
0.00197702
0.00205482
0.00217811
0.0023052
0.00242309
0.00252271
0.00260055
0.00265762
0.00269799
0.0027139
0.00271415
0.00270674
0.00269587
0.00268257
0.00266384
0.00263424
0.00258241
0.00250202
0.002395
0.00224821
0.00204712
0.00179637
0.00396194
0.0036902
0.00339674
0.00308497
0.0027669
0.00246396
0.00220787
0.00203129
0.00195127
0.00195487
0.00201988
0.0021067
0.00219451
0.00227136
0.00232945
0.00238036
0.00242228
0.00245144
0.00247127
0.00248813
0.00250229
0.00251483
0.00252264
0.00251937
0.00249432
0.00243258
0.00233096
0.00218725
0.00200279
0.00176339
0.00408717
0.00383193
0.00355363
0.00325294
0.00293706
0.00262071
0.00232839
0.00209037
0.00193193
0.00185606
0.00184457
0.00187321
0.00191993
0.00197005
0.0020182
0.00206441
0.00210619
0.00214243
0.00217459
0.00220729
0.0022387
0.00227016
0.00229926
0.00232
0.00232271
0.00229401
0.00221799
0.00209431
0.00191839
0.00169857
0.0040695
0.00384253
0.00359232
0.003317
0.00302
0.0027112
0.00240922
0.00214044
0.00193202
0.00179597
0.00172199
0.00170206
0.00171979
0.00175744
0.00180981
0.00185909
0.00190091
0.00193593
0.00196894
0.00199873
0.00202629
0.0020536
0.0020803
0.00210244
0.00211263
0.00210008
0.00205068
0.0019496
0.00180155
0.00161153
0.00391905
0.0037363
0.0035307
0.0032979
0.0030388
0.00276153
0.00248186
0.00222397
0.0020137
0.00186152
0.00176558
0.00173073
0.00174124
0.00178054
0.00184
0.00189236
0.00193113
0.00196008
0.00198396
0.0019996
0.00200927
0.0020151
0.00201808
0.00201636
0.00200499
0.001976