/*--------------------------------*- C++ -*----------------------------------*\
| =========                 |                                                 |
| \\      /  F ield         | OpenFOAM: The Open Source CFD Toolbox           |
|  \\    /   O peration     | Version:  5.0                                   |
|   \\  /    A nd           | Web:      www.OpenFOAM.org                      |
|    \\/     M anipulation  |                                                 |
\*---------------------------------------------------------------------------*/
FoamFile
{
    version     2.0;
    format      ascii;
    class       volScalarField;
    location    "1250/porous";
    object      T;
}
// * * * * * * * * * * * * * * * * * * * * * * * * * * * * * * * * * * * * * //

dimensions      [0 0 0 1 0 0 0];

internalField   nonuniform List<scalar> 
36000
(
400
400
400
400
399.999
399.584
399.208
398.856
398.522
398.2
397.886
397.579
397.278
396.98
396.686
396.396
396.109
395.825
395.544
395.265
394.988
394.712
394.437
394.16
393.883
393.606
393.332
393.059
392.789
392.524
392.263
392.008
391.761
391.527
391.312
391.833
392.186
392.455
392.674
392.86
400
400
400
400
399.999
399.634
399.303
398.995
398.706
398.429
398.162
397.903
397.65
397.403
397.16
396.922
396.688
396.457
396.229
396.004
395.782
395.562
395.342
395.121
394.901
394.681
394.463
394.248
394.035
393.825
393.62
393.42
393.226
393.042
392.868
393.212
393.453
393.639
393.787
393.919
400
400
400
400
399.999
399.641
399.318
399.02
398.741
398.476
398.223
397.978
397.741
397.511
397.287
397.068
396.854
396.644
396.438
396.236
396.037
395.841
395.645
395.449
395.254
395.06
394.868
394.679
394.493
394.31
394.132
393.96
393.793
393.635
393.487
393.803
394.03
394.205
394.345
394.466
400
400
400
400
399.999
399.64
399.318
399.021
398.743
398.48
398.229
397.988
397.754
397.528
397.308
397.095
396.886
396.682
396.483
396.288
396.097
395.908
395.72
395.532
395.345
395.16
394.977
394.796
394.619
394.445
394.277
394.114
393.957
393.809
393.67
393.981
394.205
394.379
394.52
394.64
400
400
400
400
399.999
399.64
399.318
399.021
398.744
398.481
398.23
397.989
397.757
397.531
397.313
397.101
396.893
396.692
396.494
396.302
396.113
395.927
395.741
395.556
395.371
395.188
395.008
394.83
394.655
394.485
394.319
394.16
394.007
393.861
393.725
394.035
394.259
394.432
394.574
394.694
400
400
400
400
399.999
399.64
399.317
399.02
398.742
398.479
398.228
397.987
397.754
397.529
397.311
397.099
396.892
396.691
396.494
396.303
396.115
395.929
395.744
395.559
395.375
395.193
395.013
394.836
394.662
394.493
394.328
394.169
394.017
393.873
393.738
394.047
394.271
394.444
394.586
394.706
400
400
400
400
399.999
399.639
399.317
399.02
398.743
398.48
398.229
397.988
397.756
397.531
397.313
397.101
396.895
396.694
396.498
396.307
396.12
395.934
395.749
395.564
395.38
395.199
395.019
394.842
394.669
394.5
394.335
394.177
394.025
393.881
393.746
394.055
394.278
394.452
394.594
394.714
400
400
400
400
399.999
399.64
399.318
399.021
398.744
398.481
398.23
397.989
397.757
397.532
397.314
397.102
396.896
396.696
396.501
396.31
396.123
395.938
395.753
395.568
395.384
395.202
395.022
394.846
394.673
394.503
394.339
394.181
394.029
393.885
393.749
394.058
394.282
394.455
394.597
394.717
400
400
400
400
399.999
399.64
399.318
399.023
398.746
398.483
398.233
397.993
397.761
397.537
397.319
397.108
396.902
396.702
396.508
396.317
396.13
395.945
395.76
395.575
395.391
395.209
395.03
394.854
394.681
394.512
394.347
394.189
394.037
393.892
393.757
394.065
394.289
394.462
394.604
394.724
400
400
400
400
399.999
399.64
399.319
399.024
398.748
398.486
398.236
397.996
397.765
397.541
397.324
397.113
396.908
396.709
396.514
396.323
396.136
395.95
395.765
395.581
395.397
395.216
395.037
394.861
394.687
394.518
394.354
394.195
394.043
393.898
393.763
394.071
394.295
394.468
394.609
394.729
400
400
400
400
399.999
399.642
399.321
399.027
398.751
398.49
398.24
398.001
397.77
397.547
397.33
397.12
396.916
396.717
396.523
396.331
396.142
395.957
395.772
395.589
395.406
395.225
395.046
394.87
394.697
394.528
394.363
394.204
394.052
393.907
393.771
394.079
394.302
394.475
394.616
394.736
400
400
400
400
399.999
399.642
399.322
399.028
398.753
398.493
398.244
398.004
397.774
397.551
397.336
397.126
396.923
396.724
396.529
396.336
396.146
395.96
395.776
395.593
395.411
395.231
395.052
394.876
394.703
394.534
394.37
394.211
394.058
393.912
393.776
394.084
394.307
394.48
394.621
394.741
400
400
400
400
399.999
399.643
399.324
399.031
398.757
398.496
398.248
398.009
397.778
397.556
397.341
397.132
396.929
396.73
396.533
396.339
396.148
395.961
395.778
395.596
395.415
395.236
395.058
394.882
394.709
394.541
394.376
394.217
394.063
393.917
393.779
394.087
394.311
394.484
394.625
394.744
400
400
400
400
399.999
399.644
399.326
399.033
398.759
398.499
398.251
398.012
397.781
397.559
397.344
397.135
396.932
396.732
396.534
396.34
396.148
395.961
395.778
395.597
395.417
395.238
395.061
394.886
394.713
394.544
394.38
394.22
394.066
393.918
393.779
394.088
394.311
394.485
394.626
394.745
400
400
400
400
399.999
399.645
399.327
399.035
398.761
398.501
398.253
398.014
397.783
397.56
397.345
397.136
396.933
396.733
396.535
396.34
396.148
395.961
395.778
395.598
395.419
395.24
395.064
394.889
394.716
394.547
394.382
394.222
394.068
393.92
393.779
394.088
394.312
394.485
394.627
394.746
400
400
400
400
399.999
399.647
399.33
399.039
398.765
398.505
398.256
398.016
397.785
397.562
397.346
397.137
396.933
396.733
396.535
396.34
396.148
395.961
395.778
395.599
395.42
395.242
395.066
394.891
394.719
394.55
394.384
394.224
394.068
393.918
393.775
394.086
394.31
394.483
394.625
394.745
400
400
400
400
399.999
399.648
399.332
399.04
398.766
398.506
398.257
398.017
397.785
397.561
397.345
397.135
396.931
396.731
396.534
396.339
396.148
395.961
395.779
395.599
395.421
395.243
395.067
394.892
394.719
394.55
394.384
394.223
394.066
393.916
393.772
394.083
394.307
394.481
394.623
394.743
400
400
400
400
399.999
399.649
399.334
399.042
398.769
398.508
398.258
398.018
397.786
397.561
397.344
397.133
396.929
396.73
396.534
396.34
396.149
395.963
395.781
395.601
395.421
395.244
395.067
394.892
394.719
394.549
394.383
394.221
394.064
393.912
393.768
394.079
394.304
394.478
394.62
394.74
400
400
400
400
399.999
399.65
399.335
399.044
398.77
398.509
398.259
398.018
397.785
397.56
397.342
397.131
396.926
396.727
396.532
396.339
396.15
395.964
395.782
395.6
395.42
395.241
395.064
394.889
394.716
394.545
394.378
394.215
394.057
393.905
393.76
394.071
394.297
394.471
394.613
394.734
400
400
400
400
399.999
399.651
399.336
399.045
398.771
398.51
398.259
398.018
397.785
397.559
397.341
397.129
396.924
396.725
396.53
396.339
396.15
395.965
395.781
395.598
395.417
395.238
395.06
394.884
394.711
394.539
394.372
394.209
394.05
393.897
393.752
394.064
394.29
394.465
394.607
394.728
400
400
400
400
399.999
399.651
399.337
399.045
398.771
398.51
398.259
398.018
397.784
397.558
397.339
397.126
396.92
396.721
396.527
396.336
396.148
395.962
395.777
395.594
395.411
395.231
395.053
394.877
394.702
394.531
394.363
394.199
394.04
393.886
393.74
394.053
394.28
394.455
394.598
394.718
400
400
400
400
399.999
399.651
399.337
399.046
398.772
398.51
398.259
398.018
397.784
397.557
397.338
397.125
396.919
396.719
396.526
396.335
396.147
395.96
395.774
395.59
395.407
395.226
395.047
394.871
394.696
394.524
394.355
394.191
394.032
393.878
393.731
394.045
394.272
394.448
394.591
394.712
400
400
400
400
399.999
399.652
399.338
399.046
398.772
398.51
398.259
398.017
397.783
397.556
397.336
397.123
396.917
396.717
396.523
396.332
396.144
395.956
395.769
395.584
395.401
395.22
395.041
394.863
394.688
394.516
394.347
394.182
394.022
393.868
393.722
394.036
394.263
394.439
394.583
394.704
400
400
400
400
399.999
399.652
399.338
399.047
398.773
398.511
398.26
398.018
397.784
397.557
397.337
397.124
396.917
396.718
396.523
396.332
396.143
395.955
395.768
395.582
395.399
395.217
395.038
394.86
394.685
394.513
394.343
394.178
394.018
393.863
393.716
394.031
394.259
394.435
394.579
394.7
400
400
400
400
399.999
399.652
399.339
399.048
398.773
398.511
398.26
398.018
397.783
397.556
397.336
397.123
396.916
396.716
396.521
396.329
396.139
395.95
395.763
395.577
395.394
395.212
395.032
394.854
394.679
394.506
394.336
394.17
394.01
393.855
393.707
394.023
394.251
394.427
394.571
394.692
400
400
400
400
399.999
399.653
399.34
399.049
398.775
398.513
398.262
398.02
397.785
397.558
397.338
397.124
396.917
396.717
396.521
396.329
396.138
395.948
395.76
395.574
395.39
395.208
395.027
394.848
394.672
394.499
394.328
394.162
393.999
393.844
393.695
394.011
394.239
394.415
394.559
394.68
400
400
400
400
399.999
399.653
399.34
399.048
398.774
398.512
398.26
398.017
397.782
397.553
397.332
397.117
396.909
396.706
396.508
396.313
396.12
395.928
395.738
395.55
395.364
395.179
394.996
394.815
394.636
394.46
394.287
394.117
393.951
393.792
393.64
393.957
394.186
394.362
394.505
394.627
400
400
400
400
399.999
399.654
399.34
399.047
398.771
398.507
398.252
398.006
397.767
397.534
397.308
397.088
396.874
396.666
396.461
396.259
396.059
395.86
395.662
395.466
395.272
395.079
394.888
394.698
394.511
394.326
394.144
393.964
393.789
393.62
393.459
393.781
394.012
394.189
394.331
394.454
400
400
400
400
399.999
399.646
399.324
399.022
398.734
398.457
398.189
397.928
397.673
397.424
397.179
396.94
396.705
396.476
396.249
396.025
395.801
395.579
395.358
395.137
394.918
394.7
394.483
394.268
394.055
393.843
393.634
393.427
393.225
393.029
392.841
393.19
393.436
393.624
393.774
393.907
400
400
400
400
399.999
399.599
399.231
398.883
398.55
398.228
397.912
397.603
397.298
396.998
396.702
396.411
396.124
395.842
395.562
395.283
395.005
394.728
394.452
394.176
393.901
393.627
393.354
393.083
392.813
392.545
392.28
392.018
391.761
391.511
391.275
391.806
392.164
392.435
392.657
392.844
400
400
400
400
399.999
399.779
399.529
399.26
398.982
398.698
398.412
398.126
397.841
397.556
397.272
396.99
396.71
396.431
396.154
395.878
395.604
395.331
395.058
394.784
394.51
394.236
393.963
393.691
393.422
393.155
392.892
392.634
392.382
392.14
391.912
392.159
392.394
392.605
392.791
392.954
400
400
400
400
400
399.811
399.599
399.374
399.141
398.906
398.67
398.435
398.201
397.968
397.738
397.51
397.285
397.061
396.84
396.621
396.404
396.188
395.973
395.758
395.543
395.329
395.115
394.903
394.693
394.486
394.281
394.08
393.884
393.695
393.514
393.628
393.749
393.867
393.973
394.074
400
400
400
400
400
399.815
399.61
399.393
399.171
398.947
398.724
398.503
398.285
398.069
397.857
397.648
397.442
397.24
397.04
396.843
396.649
396.457
396.266
396.076
395.886
395.698
395.51
395.325
395.141
394.96
394.783
394.609
394.441
394.278
394.122
394.224
394.333
394.439
394.537
394.628
400
400
400
400
400
399.815
399.61
399.393
399.172
398.95
398.73
398.511
398.296
398.085
397.877
397.673
397.472
397.275
397.082
396.892
396.705
396.52
396.337
396.155
395.973
395.793
395.614
395.437
395.262
395.091
394.922
394.758
394.599
394.446
394.3
394.4
394.508
394.613
394.711
394.802
400
400
400
400
400
399.815
399.61
399.394
399.173
398.951
398.731
398.513
398.298
398.088
397.881
397.678
397.479
397.284
397.092
396.905
396.72
396.538
396.357
396.177
395.998
395.82
395.644
395.469
395.298
395.129
394.964
394.803
394.647
394.497
394.354
394.454
394.562
394.667
394.765
394.856
400
400
400
400
400
399.814
399.609
399.392
399.171
398.949
398.728
398.51
398.295
398.085
397.878
397.675
397.477
397.282
397.091
396.904
396.72
396.538
396.358
396.179
396
395.823
395.647
395.474
395.303
395.135
394.971
394.811
394.656
394.507
394.365
394.466
394.573
394.678
394.776
394.868
400
400
400
400
400
399.814
399.609
399.393
399.171
398.949
398.729
398.511
398.296
398.086
397.879
397.677
397.478
397.284
397.093
396.907
396.723
396.542
396.362
396.183
396.005
395.828
395.653
395.479
395.309
395.141
394.977
394.818
394.663
394.514
394.372
394.473
394.581
394.686
394.784
394.875
400
400
400
400
400
399.814
399.609
399.393
399.171
398.949
398.729
398.511
398.296
398.086
397.879
397.677
397.479
397.285
397.095
396.908
396.725
396.544
396.364
396.185
396.007
395.83
395.655
395.482
395.311
395.144
394.98
394.82
394.666
394.517
394.375
394.476
394.583
394.688
394.786
394.878
400
400
400
400
400
399.815
399.609
399.393
399.173
398.951
398.73
398.513
398.299
398.089
397.883
397.681
397.483
397.29
397.1
396.914
396.731
396.55
396.37
396.191
396.013
395.836
395.661
395.489
395.318
395.151
394.987
394.827
394.673
394.524
394.382
394.483
394.59
394.695
394.793
394.884
400
400
400
400
400
399.815
399.61
399.394
399.174
398.952
398.732
398.515
398.301
398.092
397.886
397.685
397.487
397.294
397.105
396.919
396.735
396.554
396.375
396.196
396.018
395.841
395.667
395.494
395.324
395.156
394.993
394.833
394.678
394.529
394.387
394.488
394.595
394.7
394.798
394.889
400
400
400
400
400
399.815
399.611
399.396
399.176
398.955
398.735
398.518
398.305
398.096
397.891
397.69
397.494
397.301
397.112
396.926
396.742
396.561
396.381
396.203
396.025
395.849
395.675
395.502
395.332
395.165
395.001
394.841
394.687
394.537
394.395
394.495
394.603
394.707
394.805
394.896
400
400
400
400
400
399.816
399.611
399.397
399.177
398.956
398.737
398.521
398.308
398.099
397.895
397.695
397.498
397.306
397.117
396.93
396.745
396.564
396.384
396.206
396.029
395.854
395.68
395.507
395.337
395.17
395.007
394.847
394.692
394.543
394.4
394.5
394.607
394.712
394.81
394.901
400
400
400
400
400
399.816
399.613
399.398
399.179
398.959
398.74
398.524
398.312
398.103
397.899
397.699
397.503
397.311
397.121
396.933
396.748
396.566
396.387
396.209
396.033
395.858
395.684
395.512
395.343
395.176
395.012
394.852
394.697
394.547
394.403
394.504
394.611
394.716
394.813
394.904
400
400
400
400
400
399.817
399.614
399.4
399.181
398.961
398.742
398.526
398.314
398.105
397.901
397.702
397.506
397.313
397.123
396.934
396.749
396.566
396.387
396.21
396.034
395.86
395.686
395.515
395.346
395.179
395.015
394.855
394.7
394.549
394.404
394.505
394.612
394.717
394.815
394.905
400
400
400
400
400
399.817
399.614
399.401
399.182
398.963
398.744
398.528
398.315
398.107
397.903
397.703
397.507
397.314
397.123
396.935
396.749
396.566
396.387
396.21
396.035
395.861
395.688
395.517
395.348
395.181
395.018
394.858
394.702
394.551
394.405
394.506
394.613
394.718
394.816
394.907
400
400
400
400
400
399.818
399.616
399.403
399.185
398.965
398.747
398.53
398.317
398.109
397.904
397.704
397.508
397.315
397.124
396.935
396.749
396.567
396.387
396.211
396.036
395.862
395.69
395.519
395.35
395.184
395.02
394.859
394.703
394.551
394.404
394.504
394.611
394.716
394.814
394.905
400
400
400
400
400
399.818
399.617
399.404
399.186
398.966
398.748
398.531
398.318
398.109
397.904
397.703
397.507
397.314
397.123
396.935
396.749
396.567
396.388
396.211
396.036
395.863
395.691
395.52
395.351
395.184
395.02
394.859
394.702
394.549
394.402
394.502
394.609
394.714
394.812
394.903
400
400
400
400
400
399.819
399.618
399.406
399.188
398.968
398.749
398.532
398.319
398.109
397.903
397.702
397.506
397.313
397.122
396.935
396.75
396.568
396.389
396.212
396.037
395.864
395.691
395.52
395.351
395.184
395.019
394.858
394.7
394.547
394.399
394.499
394.606
394.711
394.809
394.9
400
400
400
400
400
399.82
399.619
399.407
399.189
398.969
398.75
398.533
398.319
398.109
397.903
397.701
397.504
397.311
397.121
396.934
396.75
396.568
396.389
396.212
396.037
395.862
395.689
395.518
395.348
395.181
395.015
394.854
394.695
394.541
394.392
394.493
394.6
394.705
394.803
394.895
400
400
400
400
400
399.82
399.62
399.408
399.19
398.97
398.751
398.534
398.319
398.109
397.902
397.7
397.502
397.309
397.12
396.933
396.75
396.569
396.389
396.212
396.035
395.86
395.687
395.515
395.345
395.177
395.011
394.848
394.69
394.535
394.386
394.486
394.594
394.699
394.798
394.889
400
400
400
400
400
399.82
399.62
399.408
399.19
398.97
398.751
398.533
398.319
398.108
397.901
397.698
397.5
397.307
397.117
396.931
396.748
396.566
396.386
396.208
396.031
395.855
395.681
395.509
395.338
395.169
395.003
394.84
394.681
394.526
394.376
394.477
394.585
394.69
394.789
394.88
400
400
400
400
400
399.82
399.62
399.408
399.191
398.971
398.751
398.534
398.319
398.108
397.901
397.698
397.5
397.306
397.117
396.931
396.747
396.566
396.385
396.206
396.028
395.852
395.678
395.505
395.334
395.165
394.998
394.834
394.675
394.519
394.369
394.47
394.578
394.684
394.782
394.874
400
400
400
400
400
399.82
399.621
399.409
399.191
398.971
398.751
398.534
398.319
398.108
397.9
397.697
397.498
397.305
397.115
396.929
396.745
396.563
396.382
396.202
396.024
395.847
395.672
395.499
395.327
395.158
394.991
394.827
394.667
394.511
394.36
394.462
394.57
394.676
394.775
394.867
400
400
400
400
400
399.821
399.621
399.41
399.192
398.973
398.753
398.535
398.321
398.11
397.902
397.699
397.5
397.306
397.116
396.93
396.746
396.563
396.382
396.202
396.023
395.846
395.671
395.497
395.326
395.156
394.989
394.825
394.664
394.508
394.357
394.458
394.566
394.672
394.771
394.863
400
400
400
400
400
399.821
399.621
399.41
399.192
398.973
398.753
398.535
398.321
398.109
397.902
397.698
397.499
397.305
397.115
396.928
396.743
396.56
396.378
396.198
396.019
395.842
395.666
395.492
395.32
395.15
394.983
394.818
394.657
394.5
394.349
394.45
394.559
394.664
394.764
394.855
400
400
400
400
400
399.821
399.623
399.412
399.195
398.975
398.756
398.538
398.323
398.112
397.904
397.701
397.502
397.307
397.117
396.929
396.743
396.559
396.377
396.196
396.016
395.839
395.662
395.488
395.315
395.144
394.976
394.81
394.648
394.491
394.338
394.439
394.547
394.653
394.752
394.844
400
400
400
400
400
399.821
399.622
399.411
399.194
398.974
398.754
398.536
398.32
398.108
397.899
397.694
397.494
397.297
397.105
396.915
396.727
396.541
396.356
396.173
395.992
395.811
395.633
395.455
395.28
395.107
394.935
394.767
394.602
394.441
394.285
394.386
394.494
394.6
394.699
394.79
400
400
400
400
400
399.822
399.623
399.411
399.192
398.97
398.748
398.527
398.307
398.091
397.878
397.668
397.462
397.26
397.061
396.864
396.669
396.476
396.284
396.093
395.904
395.715
395.528
395.343
395.159
394.977
394.797
394.619
394.444
394.274
394.108
394.211
394.32
394.427
394.525
394.618
400
400
400
400
400
399.817
399.612
399.391
399.161
398.928
398.692
398.456
398.221
397.988
397.757
397.528
397.302
397.079
396.859
396.64
396.422
396.205
395.989
395.774
395.56
395.346
395.134
394.922
394.712
394.503
394.296
394.091
393.889
393.692
393.5
393.614
393.736
393.855
393.962
394.064
400
400
400
400
399.999
399.787
399.543
399.278
399.002
398.72
398.435
398.148
397.86
397.574
397.288
397.005
396.725
396.446
396.17
395.895
395.621
395.346
395.073
394.8
394.527
394.255
393.983
393.713
393.444
393.176
392.91
392.647
392.387
392.133
391.889
392.138
392.375
392.587
392.775
392.939
400
400
400
400
400
399.862
399.702
399.524
399.328
399.119
398.9
398.671
398.435
398.193
397.948
397.699
397.447
397.193
396.938
396.682
396.426
396.168
395.909
395.649
395.388
395.126
394.863
394.601
394.34
394.079
393.821
393.566
393.316
393.072
392.837
392.911
393.006
393.109
393.215
393.314
400
400
400
400
400
399.881
399.747
399.6
399.442
399.274
399.099
398.919
398.733
398.544
398.352
398.159
397.964
397.768
397.572
397.375
397.178
396.981
396.784
396.586
396.387
396.188
395.989
395.791
395.593
395.396
395.201
395.009
394.819
394.634
394.453
394.454
394.469
394.494
394.526
394.561
400
400
400
400
400
399.884
399.755
399.613
399.463
399.305
399.141
398.972
398.801
398.627
398.452
398.277
398.1
397.924
397.749
397.574
397.399
397.226
397.052
396.878
396.705
396.531
396.358
396.186
396.014
395.845
395.677
395.511
395.349
395.19
395.036
395.039
395.052
395.073
395.1
395.131
400
400
400
400
400
399.884
399.754
399.614
399.464
399.307
399.145
398.979
398.81
398.64
398.469
398.298
398.126
397.956
397.786
397.617
397.45
397.283
397.116
396.95
396.784
396.619
396.454
396.29
396.127
395.967
395.808
395.652
395.499
395.35
395.205
395.21
395.225
395.247
395.275
395.307
400
400
400
400
400
399.884
399.755
399.614
399.464
399.308
399.146
398.981
398.813
398.643
398.473
398.303
398.133
397.964
397.796
397.629
397.463
397.299
397.134
396.971
396.807
396.644
396.482
396.321
396.161
396.003
395.847
395.694
395.544
395.399
395.257
395.263
395.279
395.302
395.33
395.363
400
400
400
400
400
399.884
399.754
399.613
399.463
399.306
399.144
398.978
398.81
398.64
398.47
398.3
398.13
397.961
397.793
397.627
397.462
397.298
397.134
396.971
396.808
396.646
396.484
396.324
396.165
396.008
395.853
395.701
395.552
395.407
395.266
395.273
395.289
395.313
395.341
395.375
400
400
400
400
400
399.884
399.754
399.613
399.463
399.306
399.144
398.978
398.81
398.641
398.471
398.301
398.131
397.963
397.795
397.629
397.465
397.301
397.138
396.974
396.812
396.65
396.488
396.328
396.17
396.013
395.858
395.706
395.558
395.413
395.273
395.279
395.296
395.32
395.348
395.382
400
400
400
400
400
399.884
399.754
399.613
399.463
399.306
399.144
398.978
398.81
398.64
398.47
398.3
398.131
397.962
397.795
397.629
397.465
397.301
397.138
396.975
396.812
396.65
396.489
396.329
396.17
396.014
395.859
395.707
395.559
395.414
395.274
395.281
395.297
395.321
395.35
395.384
400
400
400
400
400
399.884
399.754
399.614
399.464
399.307
399.145
398.979
398.812
398.642
398.473
398.303
398.134
397.966
397.799
397.633
397.469
397.306
397.142
396.98
396.817
396.655
396.494
396.335
396.176
396.02
395.865
395.713
395.565
395.42
395.28
395.287
395.303
395.327
395.356
395.389
400
400
400
400
400
399.884
399.755
399.614
399.464
399.308
399.146
398.98
398.813
398.644
398.474
398.305
398.136
397.968
397.802
397.636
397.472
397.308
397.145
396.983
396.82
396.659
396.498
396.338
396.18
396.024
395.869
395.717
395.569
395.424
395.284
395.291
395.307
395.331
395.36
395.393
400
400
400
400
400
399.884
399.755
399.615
399.466
399.309
399.148
398.983
398.815
398.647
398.478
398.309
398.141
397.973
397.807
397.642
397.477
397.314
397.151
396.988
396.826
396.665
396.504
396.345
396.187
396.03
395.876
395.725
395.576
395.431
395.291
395.298
395.314
395.338
395.367
395.4
400
400
400
400
400
399.884
399.756
399.616
399.467
399.31
399.149
398.984
398.817
398.649
398.48
398.312
398.144
397.977
397.81
397.645
397.48
397.316
397.153
396.991
396.829
396.668
396.508
396.349
396.191
396.035
395.88
395.729
395.58
395.436
395.295
395.301
395.318
395.341
395.37
395.404
400
400
400
400
400
399.885
399.756
399.617
399.468
399.312
399.151
398.987
398.82
398.652
398.483
398.315
398.148
397.981
397.814
397.648
397.482
397.318
397.156
396.994
396.833
396.672
396.512
396.353
396.195
396.039
395.885
395.734
395.585
395.44
395.299
395.305
395.321
395.345
395.374
395.408
400
400
400
400
400
399.885
399.757
399.618
399.469
399.313
399.153
398.988
398.821
398.653
398.485
398.317
398.149
397.982
397.815
397.649
397.483
397.319
397.156
396.994
396.833
396.673
396.513
396.355
396.197
396.041
395.887
395.736
395.587
395.442
395.3
395.306
395.322
395.346
395.375
395.409
400
400
400
400
400
399.885
399.758
399.618
399.47
399.315
399.154
398.989
398.823
398.655
398.486
398.318
398.15
397.983
397.816
397.649
397.484
397.319
397.156
396.995
396.834
396.674
396.515
396.356
396.199
396.043
395.889
395.738
395.589
395.443
395.301
395.307
395.324
395.347
395.376
395.41
400
400
400
400
400
399.886
399.759
399.62
399.472
399.316
399.156
398.991
398.824
398.656
398.487
398.319
398.151
397.984
397.817
397.65
397.484
397.32
397.157
396.996
396.835
396.675
396.516
396.358
396.201
396.045
395.891
395.739
395.59
395.444
395.3
395.307
395.323
395.347
395.375
395.409
400
400
400
400
400
399.886
399.759
399.621
399.473
399.317
399.156
398.992
398.825
398.656
398.487
398.319
398.151
397.983
397.816
397.65
397.484
397.32
397.157
396.996
396.835
396.675
396.516
396.358
396.201
396.045
395.891
395.739
395.589
395.443
395.299
395.305
395.321
395.345
395.374
395.407
400
400
400
400
400
399.887
399.76
399.622
399.474
399.318
399.158
398.993
398.826
398.657
398.488
398.319
398.15
397.983
397.816
397.65
397.485
397.321
397.158
396.997
396.836
396.676
396.517
396.359
396.201
396.045
395.891
395.738
395.588
395.441
395.297
395.304
395.32
395.343
395.372
395.405
400
400
400
400
400
399.887
399.761
399.622
399.474
399.319
399.158
398.993
398.826
398.657
398.488
398.318
398.15
397.982
397.815
397.649
397.484
397.321
397.158
396.997
396.836
396.676
396.516
396.357
396.2
396.043
395.888
395.736
395.585
395.437
395.293
395.299
395.315
395.338
395.367
395.401
400
400
400
400
400
399.887
399.761
399.623
399.475
399.32
399.159
398.994
398.827
398.657
398.488
398.318
398.149
397.981
397.815
397.649
397.485
397.321
397.159
396.997
396.835
396.675
396.515
396.356
396.198
396.041
395.886
395.732
395.581
395.433
395.289
395.294
395.31
395.334
395.363
395.396
400
400
400
400
400
399.887
399.761
399.623
399.475
399.32
399.159
398.994
398.826
398.657
398.487
398.317
398.148
397.98
397.813
397.648
397.483
397.32
397.156
396.994
396.832
396.671
396.511
396.351
396.193
396.036
395.88
395.726
395.575
395.426
395.281
395.287
395.303
395.326
395.355
395.389
400
400
400
400
400
399.887
399.761
399.623
399.476
399.321
399.16
398.995
398.827
398.658
398.488
398.318
398.148
397.98
397.814
397.648
397.484
397.32
397.156
396.994
396.831
396.67
396.509
396.349
396.191
396.033
395.877
395.723
395.571
395.422
395.276
395.282
395.298
395.322
395.35
395.384
400
400
400
400
400
399.887
399.761
399.623
399.476
399.321
399.16
398.995
398.827
398.657
398.487
398.317
398.147
397.979
397.812
397.647
397.482
397.318
397.154
396.991
396.828
396.666
396.505
396.345
396.186
396.028
395.872
395.717
395.565
395.416
395.27
395.276
395.291
395.315
395.344
395.377
400
400
400
400
400
399.888
399.762
399.624
399.477
399.322
399.161
398.996
398.829
398.659
398.489
398.319
398.15
397.981
397.815
397.649
397.484
397.32
397.155
396.992
396.829
396.667
396.506
396.345
396.186
396.028
395.871
395.717
395.564
395.415
395.268
395.274
395.29
395.313
395.342
395.375
400
400
400
400
400
399.888
399.762
399.624
399.477
399.322
399.161
398.996
398.829
398.659
398.489
398.319
398.149
397.981
397.814
397.648
397.482
397.317
397.153
396.989
396.826
396.664
396.502
396.341
396.182
396.023
395.866
395.711
395.558
395.408
395.262
395.267
395.283
395.306
395.335
395.368
400
400
400
400
400
399.888
399.763
399.625
399.478
399.324
399.164
398.999
398.831
398.662
398.492
398.322
398.152
397.983
397.816
397.649
397.483
397.318
397.153
396.989
396.825
396.662
396.5
396.338
396.178
396.019
395.861
395.705
395.551
395.4
395.252
395.257
395.273
395.296
395.324
395.357
400
400
400
400
400
399.888
399.762
399.625
399.478
399.323
399.162
398.997
398.829
398.658
398.487
398.316
398.145
397.975
397.805
397.637
397.469
397.301
397.134
396.968
396.801
396.636
396.471
396.307
396.144
395.982
395.822
395.663
395.506
395.352
395.201
395.205
395.219
395.241
395.269
395.301
400
400
400
400
400
399.888
399.762
399.624
399.476
399.32
399.157
398.989
398.818
398.644
398.469
398.293
398.117
397.942
397.767
397.592
397.417
397.243
397.068
396.894
396.721
396.547
396.375
396.202
396.031
395.86
395.691
395.523
395.357
395.193
395.033
395.034
395.046
395.068
395.094
395.125
400
400
400
400
400
399.885
399.755
399.611
399.455
399.289
399.115
398.935
398.749
398.56
398.368
398.174
397.979
397.784
397.588
397.391
397.194
396.997
396.799
396.601
396.403
396.204
396.006
395.808
395.61
395.413
395.216
395.021
394.827
394.637
394.449
394.449
394.463
394.488
394.52
394.555
400
400
400
400
400
399.867
399.711
399.535
399.342
399.135
398.916
398.687
398.451
398.209
397.962
397.712
397.461
397.207
396.953
396.697
396.441
396.183
395.924
395.664
395.403
395.142
394.881
394.62
394.359
394.098
393.839
393.581
393.325
393.072
392.826
392.899
392.993
393.097
393.203
393.302
400
400
400
400
400
399.894
399.777
399.647
399.506
399.354
399.192
399.02
398.839
398.651
398.455
398.253
398.045
397.833
397.616
397.395
397.171
396.944
396.713
396.48
396.243
396.005
395.764
395.522
395.279
395.036
394.793
394.552
394.313
394.078
393.848
393.845
393.855
393.877
393.908
393.934
400
400
400
400
400
399.908
399.809
399.702
399.587
399.466
399.338
399.205
399.066
398.923
398.775
398.624
398.469
398.311
398.151
397.988
397.823
397.657
397.488
397.318
397.146
396.972
396.797
396.622
396.446
396.27
396.094
395.919
395.745
395.574
395.406
395.369
395.338
395.315
395.296
395.28
400
400
400
400
400
399.91
399.814
399.711
399.602
399.487
399.368
399.244
399.117
398.986
398.852
398.716
398.577
398.437
398.295
398.152
398.008
397.863
397.717
397.57
397.421
397.272
397.122
396.972
396.821
396.672
396.522
396.374
396.228
396.084
395.942
395.914
395.89
395.871
395.855
395.844
400
400
400
400
400
399.91
399.814
399.711
399.603
399.489
399.371
399.249
399.124
398.996
398.865
398.733
398.599
398.463
398.326
398.189
398.051
397.912
397.773
397.632
397.491
397.349
397.207
397.065
396.923
396.781
396.641
396.502
396.364
396.23
396.097
396.073
396.053
396.037
396.025
396.017
400
400
400
400
400
399.91
399.814
399.711
399.603
399.49
399.372
399.251
399.126
398.998
398.869
398.737
398.604
398.47
398.334
398.199
398.063
397.926
397.788
397.65
397.511
397.371
397.232
397.092
396.953
396.814
396.677
396.541
396.407
396.275
396.146
396.123
396.104
396.09
396.079
396.073
400
400
400
400
400
399.91
399.813
399.711
399.602
399.489
399.371
399.249
399.124
398.996
398.866
398.735
398.602
398.467
398.333
398.197
398.061
397.925
397.788
397.65
397.511
397.373
397.234
397.095
396.956
396.818
396.682
396.546
396.413
396.282
396.154
396.132
396.114
396.1
396.09
396.085
400
400
400
400
400
399.91
399.814
399.711
399.602
399.489
399.371
399.249
399.124
398.997
398.867
398.735
398.602
398.468
398.334
398.199
398.063
397.927
397.79
397.652
397.514
397.375
397.237
397.098
396.96
396.822
396.686
396.551
396.418
396.287
396.159
396.138
396.12
396.106
396.096
396.091
400
400
400
400
400
399.91
399.814
399.711
399.602
399.489
399.371
399.249
399.124
398.996
398.866
398.735
398.602
398.468
398.333
398.198
398.063
397.927
397.79
397.652
397.514
397.375
397.236
397.098
396.96
396.822
396.686
396.551
396.418
396.287
396.159
396.138
396.12
396.106
396.096