/*--------------------------------*- C++ -*----------------------------------*\
| =========                 |                                                 |
| \\      /  F ield         | OpenFOAM: The Open Source CFD Toolbox           |
|  \\    /   O peration     | Version:  5.0                                   |
|   \\  /    A nd           | Web:      www.OpenFOAM.org                      |
|    \\/     M anipulation  |                                                 |
\*---------------------------------------------------------------------------*/
FoamFile
{
    version     2.0;
    format      ascii;
    class       volScalarField;
    location    "850/air";
    object      alphat;
}
// * * * * * * * * * * * * * * * * * * * * * * * * * * * * * * * * * * * * * //

dimensions      [1 -1 -1 0 0 0 0];

internalField   nonuniform List<scalar> 
243000
(
0.000163349
0.000172394
0.000172887
0.000170377
0.000165702
0.000159561
0.000152593
0.000145329
0.000138166
0.000131452
0.000125394
0.000120284
0.000116291
0.000113718
0.000112276
0.000111296
0.000110232
0.000109005
0.000107721
0.000106489
0.000105374
0.000104468
0.000104035
0.000103673
0.000102709
0.000100365
9.5353e-05
0.00041844
9.46163e-05
0.000113843
0.000712654
0.000783943
0.000819763
0.000839742
0.000848655
0.000848393
0.000841244
0.000829043
0.000813463
0.000796175
0.000778337
0.00076177
0.000747215
0.000735775
0.000724593
0.000710268
0.000691726
0.000670849
0.000649182
0.000627723
0.000606787
0.000586988
0.000569844
0.000554421
0.000537295
0.000515695
0.000484629
0.000445075
0.000437999
0.000491496
0.000770235
0.000848515
0.000894062
0.000919618
0.000932441
0.00093479
0.000929157
0.000917821
0.000902646
0.000885473
0.000867491
0.000850565
0.000835413
0.000822828
0.000809308
0.000791184
0.000767695
0.00074161
0.000715017
0.000689206
0.000664557
0.000641496
0.000621039
0.000602611
0.000583465
0.000561007
0.000531043
0.000491979
0.000474498
0.000529054
0.000795759
0.000884203
0.000938821
0.000970303
0.000987825
0.000993832
0.000990761
0.000981398
0.000967787
0.000951897
0.000934982
0.000918914
0.000904324
0.000891728
0.000877226
0.000856975
0.000830396
0.000800765
0.000770564
0.000741366
0.000713665
0.000687798
0.000664428
0.000642812
0.000621111
0.00059695
0.000566596
0.000527827
0.000503754
0.000556315
0.000802624
0.000897972
0.000965027
0.00100279
0.00102526
0.00103536
0.00103539
0.00102853
0.00101705
0.00100303
0.000987789
0.000973183
0.000959714
0.00094764
0.000932788
0.000911317
0.000882832
0.000850846
0.000818119
0.00078643
0.000756383
0.000728269
0.000702496
0.000678192
0.000653903
0.000627855
0.000596556
0.000557344
0.000528132
0.000577356
0.000798034
0.000898675
0.000975655
0.00102289
0.00105031
0.00106465
0.00106812
0.00106402
0.00105495
0.00104312
0.00102988
0.00101707
0.00100504
0.000993784
0.000978941
0.000956794
0.000927178
0.000893691
0.000859246
0.000825775
0.000793981
0.000764115
0.000736416
0.00070996
0.000683331
0.00065552
0.00062315
0.000583271
0.000549695
0.000593966
0.000787098
0.00089206
0.000975377
0.00103275
0.00106636
0.00108488
0.00109197
0.00109079
0.00108429
0.00107482
0.00106377
0.00105297
0.00104255
0.0010323
0.0010177
0.000995242
0.000965062
0.000930672
0.00089512
0.000860418
0.000827347
0.00079614
0.000766934
0.00073878
0.000710149
0.000680804
0.00064744
0.000606902
0.000569446
0.000606263
0.000775108
0.00088077
0.000969406
0.00103377
0.00107489
0.00109807
0.00110887
0.00111076
0.00110692
0.0010999
0.00109117
0.0010825
0.00107382
0.00106468
0.00105048
0.00102801
0.000997663
0.000962843
0.00092664
0.000891139
0.000857168
0.000824968
0.000794597
0.000765116
0.000734821
0.000704193
0.000669993
0.000628958
0.000588091
0.000615149
0.000762771
0.000867085
0.000959184
0.00102891
0.00107682
0.0011056
0.00112014
0.00112529
0.00112415
0.00111965
0.00111331
0.00110684
0.00109996
0.001092
0.00107833
0.00105608
0.00102587
0.000990994
0.000954512
0.000918549
0.000883984
0.000851075
0.000819833
0.000789323
0.000757676
0.000726007
0.00069114
0.000650063
0.000605983
0.000621521
0.000749388
0.000854429
0.000945901
0.00102004
0.00107351
0.00110764
0.0011268
0.00113527
0.00113695
0.00113501
0.0011311
0.00112687
0.0011218
0.00111505
0.00110203
0.00108019
0.00105035
0.00101575
0.00097927
0.000943123
0.000908211
0.000874841
0.000842974
0.000811684
0.000778964
0.000746479
0.000711108
0.000669932
0.000623328
0.000626222
0.000734382
0.000841676
0.000932339
0.00100799
0.00106608
0.0011055
0.00112915
0.00114135
0.00114605
0.00114671
0.00114525
0.00114326
0.00113999
0.00113447
0.00112217
0.00110092
0.00107164
0.00103754
0.00100134
0.000965234
0.000930194
0.000896562
0.000864281
0.000832428
0.000798893
0.000765796
0.000730084
0.000688683
0.000640505
0.000630265
0.000717049
0.000828061
0.00091913
0.000993774
0.00105548
0.00109984
0.00112782
0.00114416
0.00115198
0.00115534
0.00115631
0.00115652
0.00115505
0.00115075
0.00113923
0.00111871
0.00109017
0.00105674
0.00102106
0.000985196
0.000950204
0.000916488
0.000883975
0.000851756
0.000817687
0.000784117
0.00074824
0.000706679
0.000658123
0.000634699
0.000695333
0.000812856
0.000905757
0.000980648
0.0010425
0.00109109
0.00112372
0.0011437
0.00115518
0.0011613
0.00116472
0.00116713
0.00116739
0.00116428
0.0011536
0.00113393
0.00110628
0.00107368
0.00103869
0.00100326
0.000968471
0.000934821
0.000902232
0.000869825
0.000835476
0.000801575
0.000765559
0.000724016
0.000675113
0.000640786
0.000670038
0.000795214
0.000891629
0.0009676
0.00102897
0.00107983
0.00111714
0.00114092
0.00115574
0.00116494
0.00117083
0.00117539
0.00117735
0.00117539
0.00116561
0.00114689
0.00112024
0.0010886
0.00105444
0.00101962
0.000985183
0.000951736
0.000919213
0.00088678
0.00085233
0.000818263
0.000782189
0.000740792
0.000691594
0.000649694
0.000644012
0.00077396
0.000876149
0.000954225
0.00101594
0.00106685
0.00110828
0.00113617
0.00115426
0.00116665
0.00117494
0.00118161
0.0011852
0.00118437
0.00117552
0.00115784
0.00113231
0.00110174
0.00106852
0.00103443
0.00100052
0.000967402
0.000935085
0.000902762
0.000868372
0.000834271
0.000798269
0.000757077
0.000708129
0.000660979
0.000626348
0.000747235
0.000858565
0.000940176
0.00100303
0.00105384
0.00109752
0.00112974
0.00115113
0.00116636
0.00117735
0.00118598
0.00119115
0.00119142
0.00118356
0.00116699
0.00114268
0.00111329
0.00108111
0.00104786
0.00101459
0.000981983
0.000950005
0.000917914
0.000883728
0.000849708
0.000813904
0.000772957
0.000724053
0.000673077
0.000642295
0.000711421
0.000837848
0.000925122
0.000990051
0.00104135
0.00108536
0.00112182
0.00114659
0.00116463
0.00117808
0.00118873
0.00119538
0.00119678
0.00118993
0.00117456
0.00115155
0.00112343
0.00109238
0.00106007
0.00102755
0.000995587
0.00096411
0.000932382
0.000898538
0.000864711
0.00082918
0.000788505
0.000739635
0.000685926
0.000674496
0.000678533
0.000812095
0.000908711
0.00097683
0.00102913
0.00107261
0.00111254
0.00114086
0.00116165
0.00117737
0.00119006
0.00119804
0.00120058
0.0011948
0.0011807
0.00115907
0.00113234
0.00110251
0.00107122
0.00103957
0.00100837
0.00097753
0.000946321
0.000912943
0.000879381
0.000844182
0.000803811
0.000755025
0.00069932
0.000708949
0.000669058
0.000779067
0.000890464
0.000963267
0.00101707
0.00106069
0.00110214
0.00113407
0.00115756
0.00117546
0.00118989
0.00119929
0.00120296
0.00119831
0.00118556
0.00116542
0.00114016
0.00111165
0.00108148
0.00105081
0.00102048
0.000990414
0.000959885
0.000927101
0.000893844
0.000859014
0.000818967
0.000770299
0.000713822
0.000745324
0.000694307
0.000745816
0.000868981
0.000949354
0.00100515
0.00104929
0.0010908
0.00112636
0.00115241
0.00117246
0.00118858
0.00119917
0.00120401
0.00120059
0.00118928
0.00117073
0.00114706
0.00111998
0.00109104
0.00106145
0.0010321
0.00100294
0.000973249
0.000941201
0.000908248
0.000873795
0.000834066
0.000785521
0.000728231
0.000781837
0.000726835
0.000724686
0.000844135
0.000935191
0.000993406
0.00103826
0.00107882
0.00111773
0.00114622
0.00116835
0.00118609
0.00119787
0.00120384
0.00120172
0.00119196
0.00117514
0.00115318
0.00112765
0.00110006
0.00107168
0.00104341
0.00101528
0.000986571
0.000955413
0.000922743
0.000888643
0.000849195
0.000800685
0.000742402
0.00081737
0.00076072
0.000721199
0.000818005
0.000920973
0.000981913
0.00102753
0.00106735
0.001108
0.00113898
0.00116305
0.00118233
0.00119531
0.00120244
0.00120171
0.00119366
0.0011787
0.00115861
0.0011348
0.00110872
0.00108167
0.0010546
0.00102759
0.000999974
0.000969839
0.000937454
0.000903693
0.000864443
0.000815855
0.00075672
0.000851572
0.000794422
0.000736607
0.000795764
0.00090643
0.000970752
0.00101705
0.00105639
0.00109716
0.00113051
0.00115632
0.00117702
0.00119124
0.00119959
0.0012004
0.00119421
0.0011813
0.00116329
0.00114142
0.00111705
0.0010915
0.00106575
0.00103995
0.00101348
0.00098443
0.000952443
0.000919037
0.000879893
0.00083106
0.000771093
0.000884547
0.000828768
0.000761451
0.000781191
0.000892523
0.000960007
0.00100687
0.0010461
0.00108543
0.00112037
0.00114757
0.00116954
0.00118501
0.00119469
0.00119711
0.001193
0.00118238
0.00116678
0.0011471
0.0011247
0.00110086
0.00107659
0.00105209
0.00102679
0.000998809
0.000967674
0.000934776
0.000895706
0.00084641
0.00078548
0.000917876
0.000860805
0.000788282
0.000775462
0.000880583
0.000950268
0.000997736
0.00103696
0.00107518
0.0011085
0.00113618
0.001159
0.00117547
0.00118644
0.00119053
0.00118865
0.00118061
0.00116772
0.00115064
0.00113055
0.00110872
0.00108619
0.00106311
0.00103901
0.00101218
0.00098324
0.000951385
0.000912589
0.000862629
0.000800456
0.000949675
0.000890634
0.000814105
0.000777899
0.000873241
0.000943143
0.000990929
0.00103023
0.00106785
0.00110024
0.00112644
0.00114818
0.0011645
0.00117594
0.00118172
0.0011822
0.00117732
0.00116771
0.00115412
0.00113723
0.00111804
0.00109748
0.00107598
0.00105342
0.00102889
0.00100202
0.000971121
0.000932305
0.000881395
0.000817332
0.000983996
0.000922823
0.000842533
0.00079107
0.000874413
0.000941881
0.00098993
0.0010296
0.00106711
0.00109979
0.00112576
0.00114753
0.00116447
0.00117719
0.00118501
0.00118798
0.00118621
0.00117993
0.0011696
0.00115574
0.00113917
0.00112067
0.00110071
0.00107935
0.00105607
0.00103009
0.00099923
0.000959592
0.000906918
0.000840033
0.00103005
0.000968116
0.000887261
0.000832242
0.000902784
0.000967178
0.00101536
0.00105575
0.00109349
0.00112732
0.00115373
0.00117617
0.00119415
0.00120846
0.00121837
0.00122352
0.00122428
0.00122069
0.00121283
0.00120121
0.00118654
0.00116954
0.00115057
0.0011297
0.00110651
0.00108012
0.00104841
0.00100711
0.000951774
0.000881004
0.00113461
0.00108461
0.00102314
0.000986299
0.00103913
0.00109613
0.00114069
0.0011784
0.00121282
0.00124458
0.00126945
0.00129072
0.00130753
0.00132212
0.00133205
0.00133724
0.00133828
0.0013353
0.00132808
0.00131723
0.00130343
0.00128735
0.00126918
0.00124877
0.00122524
0.00119835
0.00116673
0.00112735
0.00107524
0.00100796
0.00150287
0.00148895
0.00147499
0.00147208
0.00149431
0.00152198
0.00154023
0.00155323
0.00156453
0.00157476
0.00158423
0.00159278
0.00159827
0.00160724
0.00161112
0.00161256
0.00161196
0.00160992
0.00160566
0.00160037
0.00159441
0.00158845
0.00158213
0.00157432
0.00156074
0.00154608
0.0015302
0.00151334
0.00148966
0.00145709
0.00019598
0.000211383
0.000214972
0.000214154
0.000210259
0.000204129
0.000196539
0.000188194
0.000179633
0.000171352
0.000163611
0.000156745
0.000150831
0.000146058
0.000141892
0.000137443
0.000132176
0.000126164
0.000119655
0.000112791
0.000105563
9.86193e-05
9.35124e-05
9.07189e-05
8.93796e-05
8.84641e-05
8.68655e-05
9.23507e-05
0.000109166
0.000123875
0.000727679
0.000876939
0.000910873
0.000911084
0.000891536
0.000858302
0.000819149
0.000778745
0.000739406
0.000701592
0.000664529
0.000628541
0.000591039
0.00055019
0.000501586
0.000448465
0.000397918
0.000357421
0.000327394
0.000306785
0.000291949
0.000284388
0.000293068
0.00031432
0.000353911
0.000386944
0.000391355
0.000439425
0.000546175
0.000642801
0.00116946
0.00147177
0.00160752
0.00166524
0.00167042
0.00163721
0.00158052
0.00151438
0.00144583
0.00137726
0.00130801
0.00123807
0.00116375
0.00108104
0.000983806
0.000877114
0.000774272
0.000691386
0.000629775
0.000587185
0.000557621
0.000540914
0.000547737
0.000570967
0.000609284
0.000626079
0.000602315
0.000605575
0.000723785
0.000918432
0.00146097
0.00192553
0.00215807
0.00228668
0.00233749
0.00232653
0.00226943
0.00219049
0.0021024
0.00201139
0.00191717
0.00181719
0.00170849
0.00158819
0.00144854
0.0012955
0.00114715
0.00102591
0.000934768
0.000870891
0.000825225
0.000796542
0.000794984
0.000811258
0.000835694
0.000822846
0.00076019
0.000715302
0.000820462
0.00109131
0.00162805
0.00217193
0.00256789
0.00278147
0.00288372
0.00290602
0.00286178
0.00277945
0.00267988
0.00257568
0.00245901
0.00233704
0.00220093
0.00204839
0.00187297
0.00168103
0.00149577
0.00134179
0.00122493
0.00114213
0.00108201
0.00104195
0.00102944
0.00103544
0.00104549
0.00100289
0.000900978
0.000811574
0.000898295
0.00123238
0.00172994
0.0023188
0.00280592
0.00315834
0.00332431
0.00338567
0.00336308
0.00328428
0.00317968
0.00306491
0.00293693
0.00279735
0.00263972
0.0024614
0.00225609
0.00203246
0.00181808
0.00163677
0.00149777
0.00139821
0.00132547
0.00127507
0.00125137
0.00124617
0.0012436
0.00117431
0.00103627
0.000904062
0.000966148
0.00135943
0.00176751
0.00240654
0.00296293
0.00339753
0.00367812
0.00377817
0.00378206
0.00371391
0.00360943
0.00348789
0.00335386
0.00320271
0.00302899
0.00283114
0.00260112
0.00235258
0.00211569
0.00191212
0.00175423
0.00163963
0.0015557
0.00149592
0.00146172
0.00144556
0.00143235
0.00134
0.00117002
0.000995904
0.00102817
0.00145977
0.00173615
0.00244189
0.00306549
0.00355951
0.00391467
0.00409525
0.00412735
0.00407697
0.00397674
0.00385408
0.00371662
0.00355839
0.00337365
0.00316158
0.00291213
0.00264465
0.00239025
0.00217002
0.00199568
0.00186755
0.00177343
0.00170512
0.00166146
0.00163525
0.00161321
0.00150137
0.00130385
0.00109132
0.00108556
0.00153085
0.00165192
0.00242845
0.00312085
0.00367153
0.0040726
0.00432907
0.00440626
0.00438018
0.00428827
0.00416829
0.00402997
0.00386955
0.00367832
0.00345666
0.00319287
0.0029117
0.0026442
0.00241171
0.00222344
0.00208318
0.00197947
0.00190345
0.00185156
0.00181655
0.00178737
0.00165931
0.0014383
0.0011918
0.0011407
0.00157292
0.00153451
0.00235445
0.00313141
0.00374035
0.00418599
0.00447866
0.0046303
0.00462825
0.00455133
0.00443714
0.00430009
0.00414104
0.00394739
0.00372003
0.0034467
0.00315653
0.00287973
0.0026383
0.00243872
0.00228768
0.00217476
0.00209186
0.00203296
0.00199057
0.00195584
0.0018145
0.00157352
0.00129696
0.00119262
0.00159108
0.00140288
0.00224098
0.00309454
0.00376906
0.00426017
0.00458938
0.00477762
0.00482601
0.00477074
0.0046654
0.00453344
0.00437755
0.00418504
0.00395488
0.00367665
0.00338157
0.00309876
0.00285049
0.00264292
0.00248195
0.00236047
0.00227121
0.00220646
0.00215825
0.00211945
0.0019675
0.0017096
0.00140665
0.00124939
0.00159307
0.00127149
0.00210427
0.00300587
0.00375851
0.00429855
0.00466531
0.00488488
0.00497513
0.00494976
0.00485837
0.00473423
0.00458211
0.00439466
0.00416448
0.00388545
0.00358893
0.0033029
0.00304974
0.00283642
0.00266676
0.00253755
0.00244229
0.00237277
0.00232042
0.00227874
0.00211877
0.0018467
0.00152067
0.00131615
0.00158837
0.00115006
0.00195797
0.00288163
0.00369705
0.00430242
0.00471037
0.00496188
0.00507932
0.00509405
0.00502046
0.00490585
0.00476066
0.00457914
0.00435202
0.00407547
0.00378044
0.00349349
0.00323709
0.00301954
0.00284279
0.00270659
0.00260592
0.00253247
0.00247769
0.00243412
0.00226867
0.00198492
0.00163857
0.00139074
0.00158847
0.00105406
0.00181245
0.00273562
0.00359796
0.00426945
0.00472756
0.00501212
0.00515833
0.00519786
0.0051539
0.00505198
0.00491576
0.00474099
0.00452013
0.00424866
0.00395751
0.00367157
0.00341336
0.00319236
0.00301066
0.00286806
0.00276264
0.00268595
0.00263024
0.00258601
0.00241746
0.00212429
0.00176019
0.00146784
0.00160195
0.000991142
0.00167234
0.00257818
0.00347155
0.00419929
0.00471827
0.00504
0.00521574
0.00527849
0.00526346
0.00517641
0.0050499
0.00488358
0.00466969
0.00440638
0.00412111
0.00383779
0.00357902
0.0033554
0.00317012
0.00302205
0.00291273
0.00283339
0.00277805
0.00273447
0.00256519
0.00226479
0.00188192
0.00155158
0.00162718
0.000962103
0.00153788
0.00241643
0.00332718
0.00410205
0.00468
0.00504827
0.00525423
0.00534104
0.00534566
0.00528
0.00516474
0.00500831
0.00480289
0.00454957
0.00427167
0.0039923
0.00373408
0.00350873
0.00332081
0.00316827
0.00305601
0.00297452
0.00292074
0.002879
0.00271144
0.00240625
0.00200717
0.00164845
0.00166098
0.000977216
0.00141459
0.00225583
0.00317335
0.00398635
0.00461704
0.00503889
0.00527516
0.0053869
0.00541081
0.00536442
0.00526202
0.00511579
0.00492094
0.00467818
0.00440872
0.00413444
0.00387804
0.0036517
0.00346171
0.00330597
0.00319164
0.0031085
0.0030572
0.0030183
0.00285507
0.00254774
0.00213485
0.00175525
0.00170236
0.00107305
0.00132558
0.00210099
0.00301747
0.00386
0.00453623
0.00501185
0.00528064
0.00541599
0.00545973
0.00542925
0.00534208
0.00520526
0.00502276
0.00479074
0.00453046
0.00426234
0.00400899
0.00378256
0.00359106
0.00343332
0.00331759
0.00323342
0.00318529
0.00314994
0.00299385
0.00268733
0.00226513
0.00186946
0.00174481
0.00120614
0.00129144
0.00196096
0.00286639
0.00373066
0.004443
0.00496421
0.00527255
0.0054289
0.00549029
0.00547644
0.00540861
0.00527402
0.00510459
0.00488349
0.00463296
0.00437224
0.004123
0.00389767
0.00370552
0.00354713
0.00342996
0.00334586
0.0033013
0.00326989
0.00312395
0.0028216
0.00239442
0.00198405
0.00180646
0.00137865
0.00132073
0.00185019
0.00272634
0.00360511
0.00434242
0.00490291
0.00525106
0.00542718
0.00550351
0.00550974
0.00544761
0.00531621
0.00515927
0.00494924
0.00470887
0.00445691
0.00421301
0.00399054
0.00379902
0.0036407
0.00352293
0.00344036
0.00339909
0.00337172
0.00323933
0.00294553
0.00251855
0.00209912
0.00188258
0.00157769
0.00143696
0.00178461
0.00260374
0.00348743
0.0042403
0.00482933
0.0052145
0.005409
0.00548478
0.00550127
0.00544998
0.0053235
0.00517345
0.00497552
0.00474583
0.00450386
0.00426719
0.00405038
0.00385973
0.00370362
0.00358699
0.00350813
0.00346886
0.00344557
0.00333086
0.00305124
0.00263128
0.00220613
0.00196543
0.00179277
0.00158311
0.00176449
0.00250501
0.00337974
0.00413813
0.00474492
0.00515347
0.00532766
0.00542085
0.00544287
0.00539763
0.00527711
0.00512668
0.00494267
0.00472394
0.00449417
0.00426751
0.00405618
0.00387106
0.00372004
0.00360723
0.00353259
0.00349582
0.00347811
0.00338474
0.00312735
0.0027242
0.0023015
0.00204745
0.00200904
0.00174835
0.00176915
0.00243343
0.00328122
0.00402502
0.0045982
0.00497468
0.00518627
0.00528935
0.00530892
0.00526089
0.00514606
0.00499246
0.00482132
0.0046165
0.00440126
0.00418473
0.00398375
0.00380941
0.00366693
0.00356057
0.00349233
0.00346203
0.00345265
0.00338363
0.0031599
0.00278661
0.00237692
0.00212007
0.00220186
0.00189644
0.00183422
0.00238889
0.00317464
0.00382881
0.00434041
0.00473088
0.00495925
0.00505048
0.00505571
0.00500166
0.00489335
0.00474526
0.00458043
0.00439733
0.00419751
0.00399738
0.00381265
0.00365301
0.00352396
0.00342952
0.00337264
0.00335368
0.00335621
0.00331511
0.00313629
0.00280768
0.00242656
0.00218176
0.00234801
0.0020209
0.00188708
0.00231579
0.00297082
0.00355542
0.00403785
0.00438111
0.00457987
0.00465626
0.00465175
0.00459966
0.00450568
0.00437861
0.00422629
0.00407153
0.00389899
0.00372676
0.00356745
0.00342962
0.00331902
0.00323972
0.00319489
0.00318539
0.00319909
0.00318231
0.00305397
0.00278027
0.00244798
0.0022322
0.00243279
0.0021093
0.0019289
0.00226941
0.00276649
0.00324062
0.00361892
0.0038943
0.00405603
0.00412328
0.00413374
0.00410739
0.00404688
0.003959
0.00384435
0.00372737
0.00360004
0.00346653
0.00334032
0.00322838
0.00313699
0.00307072
0.00303181
0.0030211
0.00303058
0.00302535
0.00293786
0.00271358
0.00243383
0.00225603
0.00247727
0.00217362
0.00196855
0.0021281
0.00251033
0.00286905
0.00315844
0.00338343
0.00354038
0.00362505
0.00366925
0.00368328
0.003667
0.00362802
0.00356517
0.00349283
0.00341633
0.00332654
0.00323677
0.00315236
0.00307918
0.00302209
0.00298209
0.00295932
0.00294928
0.00292988
0.00285349
0.00265482
0.00240856
0.00224086
0.00256749
0.00231118
0.002087
0.00211123
0.00239122
0.00267266
0.00290953
0.0031055
0.00325993
0.00335941
0.00342636
0.00346783
0.00348231
0.00347644
0.00345045
0.00341287
0.00337012
0.0033148
0.00325375
0.00319309
0.00313762
0.00309168
0.00305589
0.00302888
0.00300597
0.00296777
0.00288439
0.00270432
0.00247106
0.00227128
0.00277052
0.00260842
0.00246385
0.00245773
0.00263387
0.00282197
0.00298205
0.00311807
0.00322979
0.00330579
0.0033595
0.00339495
0.00340935
0.00340623
0.00338327
0.00335281
0.0033147
0.00327307
0.00323242
0.00319374
0.00315998
0.00313362
0.00311439
0.00309928
0.00308187
0.00305074
0.00299129
0.00287816
0.00271299
0.00254867
0.00304956
0.00297623
0.00291702
0.00291402
0.00297307
0.00304234
0.00310605
0.00316397
0.00321137
0.00324291
0.00326882
0.00328686
0.00329265
0.00328888
0.00326599
0.00323895
0.00321004
0.00318147
0.0031582
0.00314218
0.00313404
0.00313356
0.00313865
0.00314685
0.00315317
0.00315548
0.00314205
0.0031114
0.00304565
0.00297848
0.000221108
0.000240086
0.000243973
0.000243631
0.000240075
0.00023399
0.000226122
0.000217216
0.000207823
0.000198453
0.000189334
0.000180778
0.000172728
0.000165283
0.000157655
0.000148852
0.000138619
0.000127597
0.000116505
0.00010552
9.37089e-05
8.07526e-05
7.93025e-05
7.88101e-05
0.000377427
0.000367451
8.99597e-05
0.000103993
0.000122757
0.000134291
0.000902139
0.00115361
0.00124718
0.00126216
0.00123769
0.00118817
0.00112785
0.00106371
0.000999478
0.000936305
0.000872635
0.000808799
0.000739329
0.000662389
0.000576831
0.000499214
0.000441684
0.000410722
0.000399209
0.000397939
0.000387545
0.000371465
0.000435257
0.000489791
0.000480527
0.000423779
0.000407844
0.000527291
0.000695361
0.000808408
0.00146894
0.00194342
0.00220717
0.00232607
0.00234971
0.00230553
0.0022201
0.00211433
0.00199942
0.00188001
0.00175532
0.00162561
0.00148165
0.00132093
0.00114566
0.000984855
0.000863636
0.000794189
0.000763485
0.000753824
0.000729751
0.00070578
0.000787154
0.000885489
0.000815892
0.000698644
0.000661821
0.000796139
0.00104702
0.00131207
0.00185075
0.00255954
0.00295029
0.00317558
0.0032701
0.00326232
0.00317863
0.00305433
0.00290709
0.00274662
0.00257458
0.00238912
0.00217945
0.00194356
0.00169008
0.00145814
0.00128094
0.0011742
0.00112095
0.00109791
0.00106287
0.00102779
0.00109453
0.00119211
0.00110721
0.000945925
0.000852512
0.000959196
0.00126134
0.00165577
0.0021172
0.0029213
0.00352509
0.00384869
0.00401755
0.00405812
0.00399223
0.00386248
0.00369521
0.00350617
0.00330065
0.00306617
0.0027997
0.00250401
0.00218522
0.00189612
0.00167463
0.00153533
0.0014612
0.00142534
0.00138197
0.00133941
0.0013852
0.00146508
0.00137199
0.00117435
0.00102051
0.00108915
0.00142588
0.00193403
0.00228451
0.00313622
0.00385593
0.00437864
0.00462541
0.0047198
0.00468246
0.00455468
0.00437574
0.00416723
0.0039328
0.00366111
0.00335125
0.00300607
0.00263386
0.00230007
0.00204425
0.00187718
0.00178417
0.00173644
0.00168741
0.00164036
0.00166505
0.0017232
0.00162252
0.00139617
0.00118547
0.00120533
0.00155918
0.00219386
0.00240576
0.00329525
0.0040872
0.00471211
0.00512185
0.00526945
0.00526757
0.00514785
0.00496401
0.00474076
0.00448321
0.00418594
0.00384127
0.00345677
0.00304247
0.00267481
0.00239276
0.00220216
0.00209203
0.00203302
0.00197939
0.00192999
0.00193627
0.00197352
0.00186419
0.00161574
0.00135577
0.00131725
0.00167155
0.00241731
0.00246695
0.00340305
0.00426596
0.00496387
0.00546475
0.00572375
0.00575929
0.00565729
0.00547237
0.00523821
0.0049634
0.00464879
0.00427834
0.00386277
0.00341727
0.0030251
0.00272298
0.00251331
0.00238705
0.00231707
0.00225891
0.00220834
0.00220003
0.00221885
0.00210012
0.00183437
0.00153315
0.0014317
0.00176833
0.00259806
0.00246829
0.00345953
0.00439725
0.00516251
0.00572192
0.00607237
0.00616731
0.00609273
0.00591002
0.00567088
0.0053859
0.00505822
0.00466991
0.00423003
0.00376389
0.00335522
0.00303785
0.00281303
0.00267132
0.00259029
0.00252753
0.00247599
0.00245703
0.0024602
0.00233167
0.00205215
0.00171647
0.00155323
0.00185423
0.00273637
0.00242434
0.0034667
0.00448063
0.00531415
0.00593116
0.00632276
0.00650947
0.0064605
0.00628613
0.00604713
0.00575591
0.00541949
0.00502133
0.00456508
0.00408746
0.00366898
0.0033403
0.0031031
0.00294653
0.00285421
0.00278657
0.00273407
0.00270778
0.00269768
0.00255935
0.00226873
0.00190429
0.00168336
0.00193378
0.00283637
0.00233605
0.003429
0.00451796
0.00542104
0.00609201
0.00652986
0.00675157
0.00676315
0.00660923
0.00637333
0.00608045
0.00573805
0.005338
0.00487355
0.00439252
0.00396964
0.00363274
0.00338495
0.00321412
0.00311012
0.00303717
0.00298348
0.00295267
0.00293074
0.00278299
0.00248348
0.00209521
0.00182059
0.00201406
0.00290391
0.00220943
0.00334699
0.00451245
0.00548755
0.00621229
0.00669409
0.00694815
0.00701198
0.00688411
0.00665525
0.00636656
0.00602547
0.00562409
0.00516025
0.0046828
0.00425975
0.00391697
0.00365964
0.00347517
0.00335904
0.00328005
0.0032248
0.00319187
0.00315827
0.00300173
0.00269543
0.00228798
0.00196383
0.00210195
0.00294967
0.00205781
0.00322606
0.00446428
0.00551417
0.00629699
0.00681768
0.0071084
0.00719646
0.0071131
0.0068988
0.00661867
0.00628261
0.00588427
0.00542928
0.00496106
0.00454104
0.00419406
0.00392739
0.00373055
0.00360151
0.00351552
0.00345807
0.00342359
0.00337844
0.00321413
0.00290325
0.00248136
0.00211093
0.00220229
0.0029866
0.0018994
0.0030754
0.00437675
0.00550242
0.00634637
0.00691091
0.00723402
0.00735016
0.00730752
0.00711013
0.00684029
0.00651367
0.00612399
0.00568366
0.0052288
0.00481408
0.00446408
0.00418836
0.00397957
0.00383717
0.00374342
0.00368256
0.00364572
0.00358908
0.00341805
0.00310508
0.00267362
0.00226713
0.00229975
0.00302442
0.00175629
0.00290685
0.004256
0.00545513
0.00636326
0.00697552
0.0073288
0.00747464
0.00745221
0.00728951
0.00703462
0.00672027
0.00634668
0.0059246
0.00548573
0.00507783
0.00472577
0.00444136
0.00422059
0.00406466
0.00396258
0.00389659
0.00385549
0.00378695
0.0036104
0.00329824
0.00286214
0.00242999
0.00239516
0.00306864
0.0016459
0.00273264
0.00411017
0.00537662
0.0063502
0.00701193
0.00739926
0.00756903
0.00757134
0.00743873
0.00720361
0.00690556
0.00655089
0.00615055
0.00572919
0.00532917
0.00497595
0.00468334
0.00445039
0.00428127
0.00416969
0.00409718
0.00404867
0.00396755
0.00378694
0.00347853
0.00304342
0.00259609
0.0025127
0.00312153
0.00158657
0.00256716
0.0039489
0.00527283
0.00631023
0.00702235
0.00744632
0.00763965
0.00766259
0.0075583
0.00735733
0.00706682
0.00673133
0.00635676
0.00595347
0.00556205
0.00520873
0.00490857
0.00466349
0.0044822
0.00435898
0.00427869
0.00421882
0.00412462
0.00394204
0.00364104
0.00321298
0.00276088
0.00264457
0.00318638
0.0015908
0.00243021
0.00378333
0.005151
0.0062469
0.00700838
0.00746948
0.0076867
0.00772969
0.00765948
0.00748663
0.00720123
0.00688034
0.00653404
0.00614885
0.00576664
0.00541453
0.00510788
0.00485168
0.00465749
0.00452213
0.00443096
0.00435679
0.00425006
0.00406861
0.00377959
0.00336474
0.00291937
0.00277847
0.00326819
0.00172612
0.0023468
0.00362692
0.00501918
0.00616396
0.00697056
0.00746588
0.00770768
0.00776565
0.00773196
0.00756871
0.00729802
0.00698867
0.00666588
0.00630076
0.00592841
0.00557906
0.00526777
0.00500007
0.00479418
0.00464598
0.00454034
0.00445081
0.00433412
0.0041583
0.00388692
0.00349025
0.00306684
0.00289735
0.00337755
0.00190681
0.00230771
0.00349184
0.00488522
0.00606438
0.00690825
0.00743393
0.00769693
0.00775572
0.00772792
0.00758651
0.00734
0.00704095
0.00673003
0.00638959
0.00602771
0.00568354
0.00536662
0.00509063
0.00487444
0.00471206
0.00459109
0.00448789
0.00436658
0.00420248
0.00395547
0.00358321
0.00319109
0.00300721
0.003489
0.00214119
0.00230927
0.00338884
0.0047557
0.00594926
0.00681829
0.00734907
0.0075636
0.00765165
0.00764205
0.00751883
0.00729654
0.00701253
0.00670607
0.00638949
0.00604137
0.00570401
0.00538098
0.00510246
0.00487675
0.00470278
0.00456983
0.0044572
0.00433952
0.0041942
0.00397858
0.00363805
0.0032855
0.00310208
0.00358329
0.0023705
0.00242214
0.00332573
0.0046327
0.00580393
0.00662207
0.00706598
0.00731257
0.0074456
0.00744846
0.00733501
0.00713448
0.00687439
0.00657592
0.00627347
0.00594813
0.00561632
0.00529698
0.00501959
0.00479138
0.00461235
0.00447321
0.0043588
0.00425221
0.00413176
0.00395314
0.00364973
0.00334382
0.00317501
0.00363324
0.00256865
0.00252442
0.00324534
0.00447748
0.00552839
0.00620968
0.00665624
0.00696808
0.00710597
0.00711059
0.00700654
0.0068309
0.00660211
0.00632723
0.00603466
0.00573955
0.00542278
0.00511958
0.00485485
0.00463357
0.00445634
0.00431802
0.00420884
0.00411723
0.00402364
0.00388351
0.00362125
0.00336031
0.003221
0.00363252
0.00272225
0.00262254
0.00314855
0.00417595
0.00505148
0.00569549
0.00618174
0.0064717
0.00660923
0.0066141
0.00653226
0.00639173
0.00620471
0.00597282
0.00570303
0.00544382
0.00516591
0.00489181
0.00465036
0.00444503
0.00427739
0.00414512
0.00404333
0.00396484
0.00389316
0.00378597
0.00356207
0.00333596
0.00322666
0.00358538
0.00282833
0.00270189
0.00304582
0.00382547
0.00455374
0.00514501
0.00556681
0.00584679
0.00597996
0.00600614
0.00596664
0.00587825
0.0057466
0.00557096
0.00534945
0.00513253
0.00490721
0.00467298
0.00446346
0.0042808
0.00412778
0.00400451
0.0039093
0.00383824
0.00377796
0.00369061
0.00349544
0.00328525
0.00318564
0.00349144
0.00289662
0.0027334
0.00288016
0.00347702
0.00403968
0.00452654
0.00491027
0.00517832
0.0053369
0.00540634
0.00542288
0.0053953
0.00532446
0.00520942
0.00504754
0.00487689
0.00469944
0.00450667
0.00433023
0.00417173
0.00403567
0.00392463
0.00383816
0.00377291
0.00371641
0.00363657
0.00346088
0.00324516
0.00311754
0.00332403
0.00299659
0.00278985
0.00277006
0.00314337
0.00360946
0.00402974
0.00437661
0.0046454
0.00483665
0.00494886
0.00501324
0.00503541
0.00501333
0.00494551
0.00483214
0.00469797
0.00454543
0.00437898
0.00422767
0.00409446
0.00398206
0.00389183
0.00382229
0.00376871
0.00372005
0.00364969
0.00349845
0.0032768
0.00309675
0.00315997
0.00322048
0.00301506
0.002917
0.00312034
0.00347966