/*--------------------------------*- C++ -*----------------------------------*\
| =========                 |                                                 |
| \\      /  F ield         | OpenFOAM: The Open Source CFD Toolbox           |
|  \\    /   O peration     | Version:  5.0                                   |
|   \\  /    A nd           | Web:      www.OpenFOAM.org                      |
|    \\/     M anipulation  |                                                 |
\*---------------------------------------------------------------------------*/
FoamFile
{
    version     2.0;
    format      ascii;
    class       volScalarField;
    location    "850/air";
    object      epsilon;
}
// * * * * * * * * * * * * * * * * * * * * * * * * * * * * * * * * * * * * * //

dimensions      [0 2 -3 0 0 0 0];

internalField   nonuniform List<scalar> 
243000
(
3.2255
4.39129
5.13283
5.66404
5.97325
6.07248
5.99854
5.79876
5.51811
5.20045
4.87676
4.58601
4.34984
4.20258
4.11113
4.00159
3.821
3.57347
3.28346
2.97554
2.66674
2.37242
2.11406
1.8652
1.59987
1.30262
0.962334
0.150214
0.761993
1.09665
1.69317
2.24769
2.56954
2.75815
2.84228
2.83461
2.75893
2.63664
2.48751
2.32967
2.17451
2.03675
1.9207
1.83247
1.74818
1.64437
1.51722
1.38305
1.253
1.13275
1.02319
0.926581
0.848409
0.780961
0.709723
0.625265
0.513943
0.39253
0.400206
0.562079
2.13805
2.85446
3.33875
3.62728
3.77412
3.79467
3.71948
3.57888
3.39922
3.20469
3.00993
2.8341
2.68274
2.56081
2.43333
2.27008
2.07137
1.86603
1.67197
1.49739
1.34262
1.20815
1.09696
1.00206
0.908513
0.805374
0.678316
0.53689
0.50198
0.705783
2.36263
3.23637
3.87177
4.26584
4.49143
4.56284
4.51116
4.37632
4.18991
3.98117
3.76782
3.5726
3.40147
3.25772
3.09679
2.88269
2.61945
2.3472
2.09094
1.86219
1.66148
1.48793
1.34212
1.21526
1.09542
0.970314
0.825223
0.663784
0.591785
0.825882
2.43646
3.40146
4.21175
4.71445
5.02585
5.16189
5.15017
5.03838
4.86295
4.65748
4.4421
4.24252
4.06412
3.90802
3.72146
3.46483
3.14599
2.81414
2.50098
2.22151
1.97689
1.76528
1.5852
1.42613
1.27758
1.12876
0.964011
0.782106
0.676496
0.924364
2.40815
3.42325
4.36183
5.01012
5.40763
5.61531
5.65534
5.57849
5.42698
5.23787
5.03343
4.84149
4.66605
4.50541
4.29988
4.00826
3.64285
3.25968
2.89618
2.57074
2.28554
2.03799
1.82509
1.63508
1.45729
1.28435
1.09929
0.897086
0.758873
1.00575
2.32461
3.3605
4.37013
5.16417
5.66336
5.94421
6.04379
6.01027
5.89201
5.72904
5.54567
5.37096
5.20668
5.04808
4.82932
4.50959
4.1066
3.68015
3.27318
2.90701
2.585
2.30419
2.06058
1.84148
1.63506
1.43847
1.23323
1.01122
0.841032
1.06689
2.22697
3.2466
4.30095
5.18835
5.80606
6.16634
6.33008
6.34634
6.26799
6.13855
5.98401
5.83407
5.68761
5.53626
5.30948
4.96831
4.53577
4.07406
3.63027
3.22868
2.8738
2.56277
2.29076
2.04462
1.81083
1.59157
1.36684
1.12596
0.924381
1.11071
2.13065
3.10469
4.17683
5.12348
5.84344
6.29655
6.52631
6.59835
6.56433
6.47395
6.35415
6.2349
6.11123
5.9714
5.74125
5.38498
4.93029
4.44091
3.96685
3.53495
3.15116
2.81295
2.51509
2.244
1.98446
1.74379
1.50054
1.24313
1.00998
1.14087
2.02918
2.97609
4.01495
5.00045
5.79517
6.33553
6.64438
6.77546
6.78993
6.74259
6.66198
6.57771
6.48058
6.35554
6.12623
5.76077
5.29044
4.781
4.28266
3.82541
3.41653
3.05436
2.7332
2.43927
2.15585
1.89521
1.63452
1.36151
1.09792
1.16178
1.91843
2.84962
3.8451
4.83329
5.68171
6.3023
6.68792
6.88493
6.95318
6.95159
6.91326
6.86683
6.79893
6.69129
6.46627
6.09717
5.61744
5.09434
4.57784
4.09991
3.66978
3.28666
2.94478
2.63024
2.32497
2.04592
1.76915
1.47945
1.1889
1.17841
1.79544
2.7193
3.68605
4.63652
5.5204
6.21018
6.66614
6.93587
7.06053
7.10788
7.11345
7.10653
7.06969
6.9812
6.76366
6.3959
5.91254
5.38136
4.85273
4.35863
3.91084
3.50981
3.1498
2.81694
2.49189
2.196
1.90437
1.5986
1.28665
1.19586
1.65345
2.57957
3.53057
4.45444
5.32446
6.06757
6.59586
6.92788
7.11842
7.21678
7.26778
7.30147
7.29619
7.22802
7.02079
6.65885
6.17712
5.64306
5.10743
4.60184
4.13984
3.7238
3.34816
2.9993
2.65684
2.3456
2.03966
1.71953
1.38918
1.22087
1.4888
2.4245
3.37209
4.27865
5.11698
5.88621
6.48318
6.87816
7.12801
7.28292
7.38069
7.45544
7.48187
7.4345
7.24009
6.88797
6.41262
5.88054
5.34224
4.82974
4.35697
3.92877
3.53998
3.17745
2.81991
2.4948
2.17554
1.84224
1.49355
1.25945
1.32125
2.24743
3.20514
4.1045
4.92389
5.68005
6.33292
6.79348
7.10011
7.3131
7.45646
7.57189
7.62976
7.6034
7.42401
7.08526
6.6206
6.09489
5.55799
5.04228
4.56268
4.12518
3.72578
3.35175
2.98131
2.64369
2.31257
1.96677
1.60261
1.31797
1.18863
2.03935
3.02407
3.92821
4.73845
5.47112
6.15315
6.67991
7.04205
7.3062
7.50004
7.65377
7.74254
7.73741
7.57499
7.2528
6.80268
6.28735
5.75571
5.24021
4.757
4.31377
3.90629
3.5228
3.14155
2.7928
2.45115
2.09348
1.71394
1.38598
1.19999
1.782
2.82229
3.74652
4.55721
5.27655
5.95358
6.5416
6.95882
7.27226
7.51147
7.70428
7.82238
7.83916
7.69548
7.39272
6.96062
6.45946
5.93656
5.42453
4.94088
4.49478
4.08217
3.69147
3.30146
2.94294
2.59168
2.22258
1.82701
1.4628
1.36592
1.5309
2.59111
3.55685
4.37809
5.09156
5.74531
6.38154
6.85412
7.21519
7.49557
7.72685
7.87169
7.91114
7.78782
7.50717
7.0963
6.61293
6.10209
5.59656
5.11546
4.66935
4.25437
3.859
3.46214
3.0948
2.73471
2.35461
1.9434
1.54692
1.58081
1.41243
2.3103
3.35639
4.19995
4.91373
5.55278
6.20495
6.73162
7.13746
7.4571
7.72081
7.89319
7.95526
7.85418
7.59827
7.21188
6.7496
6.25404
5.75807
5.28245
4.839
4.42428
4.02688
3.62513
3.24954
2.88114
2.49032
2.06369
1.64043
1.83419
1.49127
2.02334
3.13865
4.02304
4.74213
5.37246
6.01606
6.59431
7.0408
7.39778
7.69268
7.88813
7.97343
7.89648
7.66793
7.30949
6.87166
6.39464
5.91118
5.44384
5.00556
4.5938
4.19705
3.79256
3.40871
3.03216
2.63055
2.18846
1.74195
2.11969
1.69981
1.82681
2.89607
3.84865
4.57705
5.20185
5.8197
6.44323
6.92604
7.31758
7.64151
7.8594
7.9672
7.91631
7.71804
7.39081
6.98103
6.5261
6.05836
5.60211
5.17144
4.7651
4.37148
3.96659
3.57414
3.1891
2.77618
2.31756
1.84435
2.42715
1.94779
1.75589
2.64896
3.67938
4.41923
5.03971
5.63155
6.27557
6.79384
7.21604
7.56616
7.80615
7.93664
7.91391
7.7491
7.45672
7.07902
6.65021
6.20195
5.75972
5.33916
4.94026
4.55182
4.1487
3.74749
3.35351
2.92827
2.45169
1.95173
2.75025
2.22015
1.81401
2.43255
3.51669
4.2695
4.88475
5.45594
6.09234
6.6415
7.0892
7.46207
7.72406
7.87784
7.88578
7.75809
7.50501
7.1643
6.76644
6.34227
5.91782
5.50994
5.12017
4.73833
4.33835
3.92977
3.52707
3.08793
2.59116
2.06361
3.08713
2.52364
1.97365
2.28301
3.36415
4.12839
4.73741
5.29462
5.89639
6.4626
6.92736
7.3183
7.60089
7.77927
7.81926
7.73305
7.52459
7.22815
6.86741
6.47282
6.07071
5.67923
5.30089
4.92665
4.53056
4.12093
3.71118
3.2572
2.73705
2.1801
3.45511
2.82863
2.17299
2.2077
3.23488
4.00278
4.6075
5.15405
5.72823
6.25686
6.72123
7.12026
7.41708
7.6176
7.68985
7.648
7.49018
7.24502
6.93077
6.57399
6.20111
5.83153
5.46817
5.10352
4.71484
4.3234
3.91284
3.44486
2.89727
2.30645
3.8281
3.1345
2.38791
2.20224
3.15376
3.91116
4.51112
5.05123
5.60892
6.11494
6.54782
6.92189
7.21164
7.41829
7.52212
7.52674
7.43065
7.24838
6.99734
6.69446
6.36191
6.01828
5.67217
5.32256
4.95796
4.57845
4.16269
3.6737
3.09058
2.45544
4.26146
3.48876
2.64359
2.29966
3.15257
3.89163
4.49363
5.03786
5.5938
6.10418
6.53374
6.90902
7.21093
7.44298
7.58719
7.64066
7.60409
7.48255
7.28697
7.03113
6.7335
6.41158
6.07584
5.72901
5.36525
4.97651
4.53639
4.00689
3.36761
2.66582
4.8938
4.0334
3.09179
2.65986
3.44845
4.20316
4.83913
5.42227
6.0111
6.56795
7.02879
7.43731
7.77672
8.05421
8.25021
8.35267
8.36673
8.29228
8.13265
7.90114
7.61542
7.29334
6.94445
6.57294
6.17497
5.74034
5.24237
4.63431
3.89448
3.07682
6.57164
5.71194
4.78137
4.40297
5.20756
6.08319
6.83179
7.51578
8.18168
8.82713
9.35712
9.82755
10.213
10.5558
10.7936
10.9193
10.944
10.8701
10.6943
10.4336
10.1089
9.73906
9.33198
8.88668
8.39107
7.84669
7.23446
6.51311
5.63176
4.6257
15.4495
15.0075
14.6017
14.5917
15.3162
16.1639
16.73
17.1488
17.5189
17.862
18.184
18.4751
18.6715
18.9886
19.1271
19.1787
19.1569
19.083
18.9303
18.7414
18.531
18.3228
18.1025
17.822
17.3626
16.8777
16.3605
15.8162
15.0698
14.0918
5.554
8.09763
9.8682
11.252
12.2094
12.7179
12.8168
12.5872
12.1173
11.5043
10.8126
10.123
9.46086
8.86965
8.25994
7.49752
6.54922
5.50515
4.46837
3.50789
2.65748
1.98757
1.52963
1.24749
1.05562
0.895127
0.739232
0.782001
1.15847
1.40818
3.83127
4.85407
5.76731
6.5218
7.06827
7.38526
7.47812
7.37929
7.13146
6.78767
6.38847
5.97209
5.55659
5.15486
4.71982
4.19573
3.61011
3.02284
2.48575
2.01918
1.62028
1.28378
1.02245
0.837698
0.708312
0.621437
0.545629
0.49966
0.578454
0.698402
3.35002
4.20779
4.95532
5.59168
6.07462
6.38281
6.513
6.4863
6.32741
6.07529
5.7629
5.42524
5.07691
4.73169
4.34046
3.85952
3.32182
2.79788
2.3291
1.9318
1.5952
1.30726
1.07633
0.91084
0.791351
0.704109
0.615938
0.526369
0.587496
0.759431
3.02689
3.83514
4.54891
5.16478
5.65021
5.9833
6.15696
6.1889
6.09592
5.90627
5.64895
5.36524
5.0651
4.75508
4.38693
3.92034
3.39328
2.87708
2.4185
2.0332
1.7104
1.43303
1.20393
1.03877
0.918949
0.82573
0.723939
0.611748
0.647547
0.878097
2.72272
3.49679
4.22603
4.85526
5.36632
5.73673
5.95684
6.04066
6.00482
5.86414
5.66368
5.42047
5.15778
4.87887
4.52792
4.06836
3.54247
3.02445
2.56365
2.17677
1.85391
1.5763
1.3432
1.17318
1.05013
0.951132
0.839238
0.712128
0.725568
0.995753
2.41354
3.16796
3.92011
4.58257
5.12515
5.53597
5.80221
5.93388
5.94934
5.86049
5.70086
5.49917
5.27195
5.02072
4.68409
4.22971
3.70317
3.18247
2.71738
2.32597
1.99919
1.71828
1.48051
1.30473
1.17707
1.07312
0.954269
0.814141
0.806557
1.1016
2.10798
2.85614
3.62844
4.32226
4.90149
5.35018
5.6599
5.8364
5.89717
5.85755
5.73697
5.57397
5.38096
5.15517
4.83126
4.38225
3.85651
3.33468
2.86618
2.47048
2.13889
1.85396
1.61233
1.43141
1.29873
1.19083
1.06778
0.916635
0.885586
1.18802
1.85311
2.57965
3.3603
4.07497
4.68766
5.17037
5.51917
5.73678
5.83816
5.84131
5.76085
5.63548
5.47529
5.27293
4.96086
4.51821
3.99582
3.47539
3.00543
2.60679
2.27077
1.98207
1.73788
1.55308
1.41585
1.30514
1.1804
1.02138
0.962771
1.25242
1.67218
2.36268
3.12612
3.84761
4.48182
4.99427
5.37699
5.6315
5.77013
5.8121
5.77124
5.68088
5.55162
5.37072
5.07
4.63519
4.11898
3.60258
3.13356
2.73364
2.39439
2.10281
1.85754
1.67036
1.52976
1.41754
1.29311
1.12969
1.04188
1.29726
1.5422
2.22586
2.93816
3.64418
4.28767
4.82272
5.23333
5.52012
5.69265
5.76926
5.76693
5.70975
5.60918
5.44788
5.1584
4.73315
4.22586
3.71607
3.2504
2.8509
2.51015
2.21717
1.97227
1.78427
1.64188
1.52958
1.40695
1.24202
1.12447
1.32803
1.44374
2.14153
2.81211
3.47118
4.10676
4.65548
5.08803
5.40334
5.60663
5.71505
5.74723
5.72258
5.64855
5.50514
5.22713
4.81326
4.31739
3.81648
3.35652
2.95927
2.61877
2.32627
2.08325
1.89598
1.75362
1.64278
1.52308
1.35825
1.21216
1.35241
1.35794
2.08876
2.736
3.3363
3.94272
4.49372
4.94294
5.28247
5.5136
5.65138
5.71462
5.72206
5.67131
5.54417
5.27818
4.87745
4.39514
3.90515
3.45291
3.05971
2.72118
2.4313
2.19162
2.00673
1.86647
1.75866
1.64278
1.47909
1.30642
1.38095
1.2648
2.05128
2.69122
3.24816
3.8004
4.33963
4.79977
5.15909
5.41543
5.58035
5.6721
5.70737
5.67956
5.56738
5.31429
4.92831
4.46123
3.98381
3.54097
3.15348
2.81874
2.53324
2.29839
2.11771
1.98189
1.8788
1.7675
1.60559
1.40901
1.41843
1.18699
2.0177
2.66369
3.19033
3.68648
4.19658
4.66044
5.03551
5.31395
5.50419
5.62208
5.68218
5.67647
5.57806
5.33903
4.96913
4.51848
4.05485
3.62258
3.2422
2.91303
2.63347
2.40485
2.23037
2.10145
2.00496
1.89901
1.73924
1.5228
1.46735
1.13169
1.97087
2.64147
3.14967
3.60121
4.06828
4.5265
4.91308
5.21165
5.42547
5.56752
5.65035
5.66461
5.5819
5.35692
5.00408
4.57058
4.12139
3.70044
3.32821
3.00612
2.7339
2.51284
2.34657
2.22711
2.13931
2.03958
1.88234
1.64946
1.52877
1.10238
1.88263
2.61215
3.11619
3.53461
3.95967
4.40094
4.7945
5.1106
5.34686
5.51217
5.6168
5.64947
5.58339
5.37349
5.03858
4.62257
4.18758
3.77848
3.41491
3.10094
2.83725
2.62498
2.46893
2.36151
2.28465
2.19213
2.0374
1.78887
1.60075
1.14204
1.73614
2.5614
3.08258
3.47925
3.87159
4.28663
4.68374
5.01431
5.2721
5.46066
5.58731
5.63831
5.58897
5.39622
5.08004
4.68136
4.26094
3.86263
3.50739
3.20188
2.94748
2.74511
2.60114
2.50836
2.44482
2.36047
2.20591
1.94036
1.69023
1.33177
1.59591
2.47321
3.04262
3.42993
3.79847
4.18665
4.58397
4.92823
5.20716
5.42048
5.57046
5.64073
5.60896
5.43566
5.13902
4.75692
4.35085
3.96165
3.61353
3.31567
3.07084
2.87906
2.74888
2.67318
2.62542
2.54984
2.3923
2.10523
1.79775
1.56508
1.54262
2.34394
2.99022
3.38413
3.73683
4.10641
4.49843
4.85764
5.15979
5.39876
5.57187
5.67061
5.65888
5.50763
5.23152
4.86601
4.47178
4.08936
3.74587
3.45338
3.21777
3.03613
2.9212
2.86493
2.83518
2.76824
2.60309
2.28852
1.91966
1.84062
1.64361
2.20412
2.92028
3.34092
3.6856
4.04608
4.43236
4.8081
5.13549
5.40414
5.6194
5.74983
5.76252
5.63708
5.38284
5.0344
4.64861
4.26876
3.92509
3.635
3.4054
3.2326
3.13369
3.09899
3.08847
3.02835
2.84804
2.49862
2.0611
2.16384
1.87705
2.10996
2.83293
3.29974
3.64756
4.00721
4.39439
4.78924
5.15721
5.48232
5.7429
5.91334
5.96037
5.86617
5.63853
5.30528
4.9242
4.5397
4.19015
3.89568
3.66499
3.50044
3.41561
3.40319
3.4097
3.35053
3.14129
2.73587
2.22264
2.54205
2.17852
2.09061
2.74161
3.26334
3.62698
3.99653
4.40519
4.85388
5.28774
5.67676
5.99939
6.22658
6.32548
6.27192
6.07847
5.76068
5.37884
4.98251
4.61618
4.30317
4.06377
3.90196
3.82664
3.82924
3.84315
3.76932
3.50591
3.01354
2.40955
2.99769
2.53936
2.19132
2.67124
3.24078
3.64267
4.07306
4.55968
5.0821
5.60181
6.08357
6.50175
6.81808
6.99975
7.01032
6.86628
6.57008
6.18627
5.76337
5.36306
5.02095
4.75438
4.57353
4.48797
4.47945
4.47217
4.34641
3.98152
3.35064
2.61801
3.57924
2.97858
2.38889
2.64743
3.26562
3.7841
4.32785
4.94717
5.62069
6.28028
6.91564
7.49447
7.9625
8.28706
8.42234
8.36569
8.12133
7.74896
7.29983
6.83945
6.41964
6.07255
5.81572
5.65934
5.56612
5.45987
5.19994
4.64392
3.78745
2.86591
4.41138
3.5708
2.71636
2.75973
3.48109
4.19016
4.9525
5.82224
6.79882
7.74875
8.67607
9.54581
10.296
10.8988
11.3051
11.4515
11.3466
11.0249
10.5298
9.94004
9.34004
8.78311
8.29365
7.88587
7.53473
7.14859
6.57474
5.65387
4.41988
3.20231
5.71321
4.53539
3.35259
3.21945
4.17674
5.26984
6.47739
7.84705
9.41739
10.9477
12.4608
13.9116
15.2114
16.3591
17.295
17.8417
17.999
17.7956
17.2219
16.3725
15.3867
14.358
13.3221
12.3059
11.3055
10.2551
9.00702
7.39124
5.49877
3.78863
8.24826
6.5947
4.98259
4.81904
6.34202
8.28238
10.4204
12.7851
15.4379
18.0519
20.6033
23.058
25.2727
27.3166
29.112
30.3214
30.9184
30.9346
30.248
28.9452
27.2376
25.3003
23.1851
20.9433
18.6221
16.2279
13.6676
10.7967
7.76712
5.18963
14.1003
12.0041
10.1342
10.3349
13.1351
16.7624
20.5847
24.589
28.8302
32.9854
36.8717
40.5529
43.838
46.7842
49.3504
51.122
52.062
52.1254
51.0727
49.0066
46.215
42.9786
39.3954
35.5284
31.4257
27.1801
22.7739
18.145
13.4411
9.39903
26.4543
25.0831
24.3706
25.9272
30.4976
35.9863
41.3098
46.5298
51.744
56.6901
61.0247
64.9222
68.1501
70.6674
72.1196
72.5009
72.0072
70.337
67.5228
63.9689
59.9864
55.8601
51.8187
47.9365
44.1507
40.1389
35.8288
31.1851
26.2094
21.418
36.7517
37.5915
39.5977
42.8847
47.1556
51.5348
55.6759
59.77
63.7216
67.3074
70.1367
72.2507
73.4651
73.6337
71.7882
68.7994
65.5757
61.7804
57.8349
53.966
50.3983
47.2124
44.529
42.4282
40.8749
39.8731
39.1806
38.371
37.3139
36.3076
7.95236
11.85
14.4167
16.5605
18.1679
19.1473
19.5094
19.3431
18.7503
17.8553
16.7367
15.5067
14.1816
12.8222
11.2938
9.48451
7.51594
5.65986
4.09507
2.84965
1.83989
1.39337
1.30923
1.12124
0.226478
0.194711
0.845649
1.15169
1.64259
1.81407
5.03045
6.38341
7.46277
8.39917
9.12801
9.61271
9.83632
9.82142
9.59763
9.21211
8.70709
8.121
7.47868
6.78505
5.97388
5.05788
4.14394
3.33218
2.65048
2.06171
1.49966
1.01013
0.702884
0.58724
0.474241
0.443233
0.490193
0.569741
0.741081
0.95213
4.52544
5.63136
6.48558
7.17873
7.70733
8.06484
8.24351
8.25597
8.11074
7.83471
7.45654
7.00841
6.51151
5.96558
5.31
4.55075
3.80014
3.14776
2.59516
2.1059
1.62324
1.1443
0.811374
0.65054
0.55699
0.507201
0.498543
0.540924
0.714948
1.02815
4.1977
5.23511
6.05294
6.69407
7.17835
7.51341
7.69751
7.74268
7.65248
7.44149
7.13064
6.75342
6.33052
5.85904
5.26641
4.56099
3.85593
3.24064
2.71839
2.25606
1.79346
1.32129
0.968817
0.774119
0.663619
0.59885
0.563246
0.588507
0.764999
1.16938
3.86329
4.84949
5.6834
6.33347
6.83201
7.18904
7.40496
7.49103
7.45326
7.29618
7.03402
6.71906
6.35429
5.92707
5.36763
4.68725
3.99888
3.39229
2.87532
2.42012
1.96696
1.50059
1.13276
0.911262
0.779579
0.699482
0.64536
0.654294
0.829735
1.30451
3.49211
4.43759
5.2964
5.98413
6.52165
6.92185
7.18408
7.31751
7.33217
7.22567
7.01622
6.75076
6.42891
6.03753
5.49952
4.83404
4.15468
3.55023
3.03277
2.57976
2.13361
1.67419
1.29735
1.05363
0.900658
0.804375
0.734994
0.725455
0.893076
1.41406
3.09492
4.01051
4.89349
5.62433
6.21307
6.66479
6.9801
7.16518
7.23062
7.17622
7.01892
6.79438
6.51265
6.14997
5.62786
4.97456
4.30325
3.70068
3.18238
2.73047
2.29057
1.84027
1.46031
1.19873
1.02535
0.912665
0.82978
0.79964
0.95191
1.49382
2.68311
3.58847
4.49186
5.26159
5.90113
6.40636
6.77577
7.01345
7.12817
7.12601
7.01924
6.83295
6.58821
6.24967
5.74152
5.10108
4.43949
3.84063
3.32282
2.87182
2.43803
1.9985
1.62061
1.34576
1.15419
1.02497
0.929415
0.87857
1.00795
1.54694
2.30964
3.19599
4.11175
4.91305
5.59195
6.14643
6.56721
6.85581
7.01864
7.06492
7.00458
6.85869
6.64899
6.33195
5.83806
5.21291
4.56363
3.97071
3.45484
3.00511
2.57726
2.15006
1.77815
1.49473
1.28775
1.14234
1.03451
0.964316
1.06429
1.57939
2.00894
2.86925
3.77451
4.58871
5.2952
5.88857
6.35581
6.6915
6.90016
6.9911
6.97667
6.87197
6.69345
6.39675
5.91894
5.3124
4.67808
4.09315
3.58039
3.13245
2.71065
2.29686
1.93351
1.64631
1.42712
1.26661
1.1462
1.05806
1.12379
1.59783
1.77482
2.61357
3.49366
4.29969
5.02056
5.63858
6.14398
6.52217
6.7736
6.90656
6.93602
6.87437
6.72246
6.44662
5.98778
5.40343
4.78638
4.21089
3.70211
3.25648
2.84118
2.44115
2.08828
1.8017
1.57384
1.39977
1.2662
1.15999
1.18923
1.60806
1.59055
2.41998
3.27262
4.0513
4.76961
5.40244
5.93562
6.35077
6.64142
6.81418
6.88401
6.86153
6.73975
6.48611
6.04981
5.49099
4.89286
4.32763
3.82324
3.38031
2.97207
2.58578
2.24519
1.96305
1.72999
1.54403
1.39686
1.27177
1.26208
1.61691
1.43861
2.27489
3.10349
3.85032
4.54541
5.18482
5.73554
6.18085
6.50712
6.71745
6.82545
6.84132
6.751
6.5214
6.11161
5.58111
5.00281
4.44785
3.94785
3.50773
3.10706
2.73414
2.40799
2.13353
1.8985
1.70219
1.54072
1.39642
1.34176
1.63217
1.31345
2.16268
2.9753
3.69063
4.35216
4.98437
5.54838
6.01736
6.3752
6.62105
6.76646
6.81881
6.76162
6.56019
6.18121
5.68109
5.12277
4.57747
4.08119
3.6437
3.25046
2.89091
2.58144
2.31746
2.08332
1.87807
1.70077
1.53478
1.43504
1.6582
1.21485
2.06688
2.8753
3.56494
4.19304
4.80548
5.37753
5.86449
6.25106
6.53106
6.71383
6.80324
6.77979
6.61242
6.26862
5.80024
5.2614
4.72447
4.23065
3.79516
3.40847
3.06286
2.77218
2.52078
2.28981
2.07697
1.88087
1.68908
1.54294
1.69979
1.15024
1.96682
2.79038
3.46449
4.06359
4.65091
5.22389
5.72921
6.14125
6.45543
6.67729
6.80392
6.81936
6.69127
6.38684
5.95113
5.43077
4.90049
4.40721
3.97221
3.59102
3.26044
2.98995
2.75204
2.52541
2.30478
2.08629
1.86256
1.66255
1.75925
1.13967
1.84846
2.70824
3.38134
3.95913
4.52502
5.09178
5.61269
6.05321
6.40279
6.66205
6.83825
6.89875
6.8143
6.55372
6.15178
5.64878
5.12304
4.62763
4.19032
3.81418
3.50183
3.24981
3.02385
2.80086
2.57063
2.32435
2.05938
1.798
1.83459
1.24721
1.73578
2.61985
3.30963
3.87554
4.42615
4.98515
5.52042
5.98993
6.37722
6.68945
6.92592
7.04202
7.00649
6.79534
6.42937
5.94323
5.41967
4.91836
4.4769
4.10449
3.81234
3.57485
3.35562
3.13219
2.88769
2.60461
2.28478
1.95697
1.9246
1.44626
1.67788
2.52595
3.2459
3.81056
4.35353
4.90887
5.45993
5.96191
6.40432
6.79515
7.09899
7.28273
7.30738
7.1519
6.82693
6.35892
5.83504
5.32644
4.87778
4.51211
4.23414
4.00166
3.77782
3.54422
3.27555
2.94081
2.54604
2.14236
2.02426
1.71505
1.72112
2.44179
3.18948
3.76391
4.30833
4.87048
5.44194
6.00962
6.54804
7.0196
7.40479
7.67392
7.77956
7.68826
7.41546
6.97036
6.44895
5.93326
5.47718
5.12012
4.83774
4.58968
4.33997
4.07677
3.76496
3.35467
2.85603
2.35625
2.1443
2.04234
1.90386
2.391
3.14361
3.73802
4.29453
4.88945
5.54315
6.21716
6.85401
7.42909
7.92343
8.30612
8.52228
8.5179
8.3173
7.91067
7.40531
6.88827
6.43819
6.06188
5.74098
5.43623
5.12459
4.7959
4.40581
3.8818
3.23539
2.60397
2.29602
2.44079
2.16389
2.38461
3.11939
3.7467
4.36891
5.07832
5.85292
6.65136
7.42063
8.14393
8.79396
9.33639
9.70879
9.8449
9.7527
9.42742
8.97003
8.48511
8.00804
7.56367
7.14107
6.71269
6.27348
5.81375
5.28141
4.58403
3.71811
2.89834
2.48853
2.94217
2.52236
2.4866
3.1486
3.87156
4.64487
5.50852
6.4739
7.47039
8.44101
9.38847
10.27
11.051
11.6629
12.0405
12.1355
11.9832
11.6357
11.1622
10.6021
10.0011
9.37641
8.71819
8.03458
7.32469
6.53627
5.55449
4.36783
3.2722
2.73318
3.6142
2.99557
2.73428
3.34602
4.23889
5.2454
6.37478
7.63995
8.98028
10.2946
11.5936
12.8334
13.9877
14.9862
15.7945
16.2298
16.3309
16.1125
15.6102
14.8839
14.0143
13.0366
11.9662
10.8357
9.66709
8.42888
6.98419
5.3168
3.80217
3.08598
4.63673
3.7452
3.25102
3.8877
5.09483
6.50844
8.09864
9.86815
11.7894
13.6689
15.5524
17.3877
19.1323
20.7239
22.1621
23.0673
23.4842
23.4437
22.8813
21.8822
20.5721
19.0133
17.2498
15.3608
13.4175
11.4224
9.24042
6.84415
4.68221
3.69135
6.49347
5.21007
4.48303
5.29164
7.08161
9.23686
11.6373
14.2466
17.0932
19.8628
22.6202
25.3162
27.8881
30.2707
32.5425
34.028
34.8104
34.9093
34.1749
32.7245
30.744
28.3324
25.5599
22.5507
19.462
16.3345
13.0403
9.54009
6.37545
4.95257
10.3831
8.63546
7.746
9.00177
11.8497
15.2869
18.9868
22.8633
26.9666
30.9453
34.8031
38.5322
42.0431
45.2344
48.2677
50.1042
50.9662
50.8048
49.493
47.1299
44.0841
40.642
36.9043
32.9279
28.7232
24.3116
19.6556
14.7317
10.1266
7.97829
19.0394
16.9898
16.2781
18.3929
22.7839
27.9446
33.218
38.4677
43.7603
48.848
53.5891
58.0604
62.1132
65.5208
68.2991
69.1661
68.2865
66.1584
63.1648
59.5471
55.6016
51.5808
47.5773
43.5559
39.3957
34.9115
29.9329
24.3898
18.6553
15.4836
33.1383
32.5532
33.2146
36.4919
42.0652
48.2793
54.3229
60.0758
65.5831
70.7604
75.3264
79.3599
82.4738
84.1775
83.8141
80.8964
77.1594
72.7129
68.0408
63.4141
59.0975
55.2398
51.9149
49.0531
46.4397
43.7483
40.6397
36.8759
32.7516
30.101
40.4862
41.6991
44.3906
48.5353
53.6733
59.071
64.5506
69.8035
74.7062
79.0359
82.3927
84.6359
85.3764
83.9298
79.9838
74.0166
68.0506
62.063
56.5481
51.7453
47.8574
44.8609
42.7531
41.4971
40.9551
40.9382
41.0958
40.9718
40.6152
40.6618
10.8942
15.8451
18.9472
21.55
23.6521
25.0269
25.6312
25.5392
24.8441
23.68
22.1215
20.305
18.2267
15.9741
13.3742
10.4321
7.62933
5.5191
4.20597
3.30904
2.22109
1.49283
1.25061
0.24779
0.222198
0.873326
1.12104
1.59716
2.18697
2.39426
6.57992
8.17832
9.35445
10.3481
11.1659
11.7322
12.018
12.036
11.8039
11.3596
10.741
9.98211
9.1131
8.11293
6.93013
5.65568
4.55851
3.76054
3.13387
2.48769
1.70458
0.981267
0.549476
0.398213
0.383009
0.442206
0.531795
0.699408
0.980001
1.57212
6.0078
7.24237
8.17
8.89078
9.41816
9.76109
9.92448
9.92034
9.74812
9.42373
8.96806
8.40877
7.76727
7.01901
6.10524
5.12233
4.28861
3.67037
3.10843
2.46827
1.7029
0.9611
0.554261
0.435787
0.424502
0.439398
0.491195
0.623079
0.942588
1.71097
5.66527
6.82246
7.7366
8.40103
8.85544
9.13782
9.27093
9.27375
9.14138
8.87862
8.49701
8.02813
7.48339
6.84832
6.03645
5.14824
4.38436
3.79565
3.23675
2.59101
1.80011
1.04353
0.638451
0.516622
0.498035
0.496277
0.530104
0.653124
0.992488
1.84043
5.30582
6.43204
7.37601
8.05936
8.52228
8.81314
8.96207
8.99276
8.90355
8.6896
8.3565
7.95399
7.48918
6.90612
6.14188
5.29442
4.55442
3.9651
3.39824
2.75038
1.9571
1.19435
0.761795
0.620886
0.587881
0.571806
0.589434
0.700646
1.04889
1.93636
4.88359
5.99695
6.98134
7.71032
8.21883
8.55503
8.74812
8.82238
8.78282
8.61435
8.33965
7.98873
7.56566
7.02149
6.28397
5.4603
4.73407
4.14145
3.57044
2.92818
2.15187
1.38474
0.92079
0.744966
0.689329
0.657132
0.659329
0.75471
1.09949
1.99175
4.40788
5.511
6.53583
7.32281
7.89652
8.29746
8.55175
8.68088
8.69597
8.5801
8.35553
8.0463
7.66241
7.14363
6.42364
5.62089
4.90921
4.31684
3.74553
3.11622
2.36258
1.60523
1.10561
0.889109
0.802551
0.75083
0.735894
0.812924
1.14451
2.02094
3.89959
4.99248
6.05182
6.90053
7.54939
8.02388
8.34791
8.53935
8.61045
8.5502
8.3731
8.10524
7.75535
7.25499
6.5508
5.77274
5.07979
4.49181
3.92663
3.31077
2.58308
1.83815
1.31012
1.04993
0.928978
0.853454
0.818397
0.875729
1.18656
2.03345
3.37867
4.46976
5.56085
6.46398
7.18507
7.73544
8.13094
8.38736
8.51503
8.51225
8.38337
8.15458
7.83568
7.35141
6.66709
5.92024
5.25052
4.66995
4.1113
3.51107
2.81044
2.08228
1.53194
1.226
1.06769
0.967059
0.907883
0.944825
1.22825
2.03283
2.93187
3.97872
5.08718
6.03702
6.81818
7.43831
7.90312
8.22359
8.40825
8.45978
8.384
8.19103
7.90212
7.43552
6.77862
6.07081
5.42786
4.85636
4.30319
3.71846
3.04439
2.33894
1.7703
1.41869
1.22034
1.09229
1.00659
1.02054
1.27265
2.02206
2.55912
3.56368
4.6581
5.63862
6.46423
7.14203
7.67014
8.05096
8.29078
8.39331
8.36659
8.21706
7.95799
7.51417
6.89404
6.23339
5.61928
5.05703
4.5074
3.93624
3.28751
2.60951
2.02625
1.6303
1.38979
1.23119
1.11788
1.10701
1.32339
2.00989
2.25147
3.21878
4.29107
5.27728
6.13792
6.8574
7.43887
7.87476
8.16707
8.31854
8.34163
8.2368
8.01
7.59746
7.0247
6.41824
5.83328
5.27889
4.73053
4.16981
3.54664
2.8977
2.30267
1.86444
1.57997
1.38725
1.24448
1.20395
1.38248
2.00271
1.99744
2.9371
3.98356
4.96223
5.8384
6.59506
7.21794
7.7023
8.04366
8.24316
8.31491
8.25603
8.06825
7.69861
7.18451
6.63704
6.07991
5.53043
4.98116
4.42657
3.83407
3.21084
2.60485
2.1264
1.79632
1.56503
1.38801
1.31208
1.45228
2.00679
1.78586
2.70807
3.73075
4.69409
5.57052
6.35314
7.0161
7.54207
7.92933
8.17607
8.29754
8.28686
8.14688
7.83397
7.3896
6.90354
6.37168
5.82305
5.27011
4.71939
4.16062
3.5594
2.94128
2.42373
2.04617
1.77071
1.55151
1.43259
1.53429
2.02292
1.61051
2.51914
3.52469
4.47106
5.3408
6.13627
6.83318
7.40237
7.83421
8.12875
8.29773
8.34645
8.26415
8.02342
7.65931
7.23489
6.72511
6.17278
5.61346
5.06842
4.54356
3.9582
3.32426
2.76702
2.33919
2.01268
1.74038
1.56788
1.62873
2.05373
1.47672
2.35821
3.35505
4.28878
5.14884
5.949
6.67355
7.28272
7.76107
8.10403
8.34019
8.45644
8.4462
8.29141
8.0184
7.65427
7.16314
6.60317
6.03752
5.50862
5.0093
4.42812
3.77125
3.17105
2.68821
2.30174
1.96248
1.72148
1.73483
2.1006
1.39555
2.21804
3.21285
4.14154
4.99393
5.79597
6.54331
7.19131
7.71729
8.11608
8.44469
8.64223
8.72754
8.67316
8.49881
8.19478
7.71901
7.15195
6.58336
6.08604
5.59538
4.99751
4.30743
3.6565
3.11064
2.65193
2.22806
1.90037
1.85594
2.16521
1.38456
2.10496
3.09376
4.02518
4.87524
5.68162
6.44905
7.13728
7.71457
8.22767
8.647
8.94254
9.14898
9.21762
9.14694
8.90572
8.44439
7.87627
7.32283
6.85798
6.35353
5.71168
4.96987
4.25355
3.63116
3.08307
2.55027
2.11148
1.99849
2.25019
1.48167
2.03781
2.99855
3.93789
4.7925
5.60865
6.39909
7.13361
7.84054
8.46423
8.99265
9.41279
9.7696
9.98947
10.0353
9.86208
9.42466
8.86797
8.37124
7.91194
7.35427
6.63668
5.8142
5.00777
4.28653
3.62359
2.94808
2.36468
2.16552
2.35859
1.68283
2.02816
2.93281
3.88045
4.74754
5.58178
6.42124
7.29014
8.13449
8.8852
9.55319
10.1352
10.6806
11.0834
11.2752
11.181
10.7966
10.2896
9.87
9.36839
8.70417
7.87148
6.92645
5.98985
5.13294
4.31566
3.44952
2.67835
2.36251
2.4962
1.97754
2.1208
2.90693
3.85677
4.74803
5.66299
6.6502
7.67222
8.66903
9.58142
10.4403
11.2359
12.0216
12.6529
13.0386
13.052
12.7874
12.403
11.9998
11.3891
10.5741
9.57028
8.44087
7.31025
6.25887
5.22545
4.10236
3.08011
2.60573
2.67222
2.37916
2.3382
2.96172
3.91773
4.90233
5.98715
7.14951
8.36763
9.56672
10.7085
11.8325
12.916
14.0125
14.9401
15.6015
15.7847
15.7493
15.4881
15.0067
14.2487
13.2239
11.9702
10.5644
9.14342
7.80485
6.45776
4.98487
3.61588
2.93192
2.92819
2.90348
2.68335
3.17266
4.16904
5.34401
6.64261
8.05332
9.54289
11.0561
12.5253
14.0204
15.497
17.0027
18.3259
19.4003
19.8879
20.0363
19.8319
19.2787
18.3369
17.0302
15.4206
13.6096
11.7587
9.98406
8.17983
6.22717
4.37757
3.41186
3.30999
3.65874
3.24646
3.6268
4.75562
6.20563
7.85513
9.63638
11.5292
13.5127
15.4651
17.4746
19.4855
21.5311
23.3854
25.0263
25.7895
26.0979
25.9394
25.3033
24.1237
22.4465
20.3627
17.9984
15.5321
13.09
10.6498
8.05045
5.54517
4.17405
3.93588
4.89776
4.25591
4.55896
5.96164
7.88224
10.0742
12.4374
14.9324
17.5821
20.2081
22.8991
25.5992
28.3137
30.806
33.0961
34.0591
34.4658
34.2068
33.1392
31.442
29.2392
26.6273
23.7025
20.5955
17.4348
14.2359
10.8345
7.4651
5.50762
5.07465
7.23403
6.32123
6.62476
8.49277
11.1679
14.214
17.4415
20.7803
24.289
27.7813
31.2929
34.7934
38.241
41.3655
44.2174
45.037
44.8873
43.7104
41.9036
39.5613
36.8385
33.8053
30.5071
26.9787
23.2662
19.3747
15.1541
10.7864
8.04279
7.32108
12.0256
10.8735
11.297
13.8697
17.6435
21.8631
26.184
30.5214
34.9521
39.3527
43.6592
47.8885
51.916
55.369
58.1903
57.4636
55.6587
53.0646
50.22
47.1337
43.9682
40.759
37.4841
34.0503
30.3478
26.2664
21.6212
16.5291
12.9598
11.8899
21.0553
20.2535
21.0782
24.4303
29.3806
34.7597
40.0532
45.1737
50.226
55.2042
59.9182
64.4173
68.4254
71.2545
72.2516
68.2829
64.0061
59.5043
55.3831
51.5664
48.1577
45.1432
42.4375
39.8329
37.0987
33.9415
30.0126
25.3814
21.6227
20.4609
32.8866
33.2979
35.52
39.7809
45.3144
51.1749
56.8141
62.1164
67.1345
71.9752
76.3454
80.2006
82.9795
83.1782
80.4954
72.6093
65.6342
59.2151
53.9944
49.6902
46.3182
43.8099
42.0596
40.8539
39.937
38.9073
37.2762
34.9592
32.7681
32.4701
37.4812
39.1333
42.2604
46.7667
52.1745
57.9865
63.8226
69.3976
74.4663
78.9273
82.5533
84.9905
85.4675
82.3919
76.1538
65.519
56.9276
49.5672
43.9236
39.6113
36.5726
34.6508
33.7345
33.6483
34.269
35.3004
36.277
36.8755
37.4066
38.737
14.4588
20.2672
23.7934
26.6214
29.0104
30.6609
31.4417
31.3902
30.5747
29.1271
27.0999
24.6474
21.7293
18.4652
14.6428
10.6498
7.70632
6.90562
7.55764
7.07509
5.02337
2.84586
1.29887
1.14981
0.226871
1.04477
1.41737
1.99346
2.6577
3.28015
8.43882
10.1523
11.3822
12.3793
13.2255
13.8406
14.1681
14.2011
13.9508
13.4427
12.7132
11.7817
10.6796
9.33532
7.74075
6.20525
5.23709
4.9915
4.86192
4.33022
3.30346
2.1321
1.04996
0.518448
0.446618
0.514843
0.633094
0.855901
1.25981
2.5216
7.79145
8.98708
9.90591
10.6265
11.1471
11.4783
11.627
11.6001
11.3959
11.0219
10.4963
9.8362
9.06138