/*--------------------------------*- C++ -*----------------------------------*\
| =========                 |                                                 |
| \\      /  F ield         | OpenFOAM: The Open Source CFD Toolbox           |
|  \\    /   O peration     | Version:  5.0                                   |
|   \\  /    A nd           | Web:      www.OpenFOAM.org                      |
|    \\/     M anipulation  |                                                 |
\*---------------------------------------------------------------------------*/
FoamFile
{
    version     2.0;
    format      ascii;
    class       volScalarField;
    location    "850/air";
    object      k;
}
// * * * * * * * * * * * * * * * * * * * * * * * * * * * * * * * * * * * * * //

dimensions      [0 2 -2 0 0 0 0];

internalField   nonuniform List<scalar> 
243000
(
0.0707133
0.084762
0.0917703
0.0957
0.0969197
0.0958937
0.0932039
0.089431
0.0850629
0.0805468
0.0761814
0.0723547
0.0692876
0.0673469
0.0661866
0.0650132
0.063225
0.0608016
0.0579376
0.054838
0.051642
0.048499
0.0456871
0.0428392
0.0394905
0.0352246
0.0295105
0.024424
0.0261579
0.0344215
0.107012
0.129316
0.141389
0.14826
0.151301
0.151074
0.148414
0.144032
0.138578
0.132677
0.126739
0.121346
0.116707
0.113119
0.109644
0.105283
0.0998014
0.0938377
0.0878626
0.0821479
0.0767612
0.0718459
0.067737
0.0641032
0.0601584
0.055319
0.0486192
0.0407191
0.0407871
0.0512038
0.125016
0.151612
0.168313
0.177925
0.182752
0.183479
0.181104
0.176562
0.170644
0.164106
0.157418
0.151253
0.145843
0.141413
0.136711
0.130559
0.122848
0.114602
0.106517
0.0989662
0.0920212
0.0857637
0.0804083
0.0757027
0.0709281
0.065483
0.0584691
0.0500681
0.0475451
0.0595292
0.133577
0.164797
0.185733
0.198198
0.205199
0.207452
0.205955
0.201893
0.196172
0.189646
0.182848
0.176512
0.17086
0.166042
0.160567
0.153119
0.143679
0.133559
0.123657
0.114465
0.106082
0.0985524
0.0919952
0.0861038
0.0803562
0.074143
0.0666144
0.057664
0.0531908
0.0660334
0.136232
0.170258
0.196401
0.211818
0.221139
0.225213
0.224961
0.221768
0.216653
0.210561
0.204066
0.197949
0.192397
0.187476
0.181507
0.173109
0.162354
0.150745
0.13935
0.128765
0.119126
0.110458
0.102804
0.0958078
0.0890423
0.0820115
0.0738775
0.0643191
0.0582303
0.0711684
0.13505
0.170869
0.200967
0.220536
0.23217
0.238195
0.239432
0.237343
0.233098
0.227714
0.221804
0.216177
0.210965
0.206138
0.199872
0.19078
0.179039
0.166275
0.15368
0.14194
0.131234
0.12157
0.11294
0.104962
0.0972151
0.0893881
0.0806301
0.0704689
0.0629203
0.0752956
0.131775
0.168672
0.20113
0.224978
0.239405
0.247389
0.250267
0.249436
0.246234
0.241742
0.236616
0.231674
0.226973
0.222388
0.215972
0.206385
0.193938
0.180292
0.166752
0.154072
0.142468
0.131947
0.122467
0.113628
0.104975
0.0964065
0.0870498
0.0763179
0.0674182
0.0783492
0.127992
0.164736
0.19892
0.225616
0.243369
0.253496
0.2581
0.258651
0.256605
0.253136
0.248936
0.244818
0.240755
0.236517
0.230073
0.220165
0.207235
0.192946
0.178678
0.165246
0.1529
0.14165
0.131434
0.121847
0.112376
0.103134
0.0932265
0.0819819
0.0718278
0.0805256
0.124193
0.159839
0.194992
0.223673
0.244371
0.257035
0.263399
0.265456
0.264637
0.262283
0.259108
0.255918
0.252578
0.248767
0.242395
0.232319
0.219093
0.204369
0.189565
0.175545
0.162593
0.150733
0.139889
0.129653
0.119456
0.109613
0.099209
0.0875751
0.0762134
0.0820332
0.120132
0.155348
0.189848
0.220017
0.242985
0.258068
0.266559
0.270185
0.270674
0.269499
0.267422
0.265228
0.262669
0.259339
0.253127
0.243016
0.229645
0.214682
0.199504
0.185041
0.171605
0.159246
0.147872
0.137078
0.126244
0.115873
0.105029
0.0930404
0.0805914
0.0830941
0.115632
0.150872
0.184452
0.215027
0.23976
0.257141
0.26771
0.273087
0.275003
0.27505
0.274116
0.272957
0.271216
0.268408
0.262422
0.252398
0.239022
0.223971
0.208576
0.193797
0.179991
0.167229
0.155417
0.14415
0.132769
0.12194
0.110717
0.0983342
0.0850118
0.0839566
0.110536
0.146185
0.179313
0.209114
0.235154
0.254601
0.267116
0.274433
0.277833
0.279169
0.279396
0.279286
0.278384
0.276121
0.270421
0.260587
0.247331
0.232314
0.216852
0.201874
0.187797
0.174723
0.162557
0.1509
0.13906
0.127836
0.11629
0.103544
0.0896456
0.0848729
0.104457
0.141066
0.174209
0.203608
0.229519
0.250657
0.265221
0.27422
0.279357
0.282025
0.283436
0.284386
0.284314
0.282606
0.277246
0.267693
0.254665
0.239794
0.224382
0.209323
0.195065
0.181761
0.169319
0.157351
0.145142
0.13358
0.121734
0.108699
0.0943435
0.0861659
0.0973007
0.135268
0.168921
0.198218
0.223538
0.245605
0.262175
0.272902
0.279613
0.283757
0.286377
0.288385
0.289135
0.287979
0.283004
0.27381
0.261107
0.246483
0.231216
0.216185
0.201834
0.188378
0.175733
0.163528
0.151031
0.13919
0.127082
0.113806
0.0990101
0.0881229
0.089865
0.128483
0.163251
0.192796
0.217886
0.239811
0.258089
0.270652
0.278887
0.284553
0.288348
0.291395
0.29295
0.292341
0.287791
0.279026
0.266732
0.252445
0.237407
0.222489
0.208145
0.194612
0.181835
0.16946
0.156747
0.144678
0.132363
0.118875
0.10378
0.0909265
0.0840597
0.120259
0.156973
0.187217
0.212382
0.233921
0.253161
0.26762
0.277367
0.284384
0.289486
0.293508
0.295848
0.295784
0.291695
0.28342
0.27161
0.25774
0.243012
0.228281
0.21402
0.200505
0.187668
0.175182
0.162321
0.150072
0.137599
0.123924
0.108524
0.0940924
0.0855303
0.109689
0.149805
0.181366
0.206929
0.228358
0.247639
0.263904
0.275179
0.283512
0.289797
0.294816
0.297896
0.29839
0.294796
0.287067
0.275809
0.262431
0.248084
0.23361
0.219506
0.206081
0.193265
0.180734
0.16779
0.155407
0.14281
0.128966
0.113246
0.0975834
0.0935123
0.0992909
0.141316
0.175141
0.201463
0.222999
0.241835
0.259576
0.272417
0.282036
0.289402
0.295413
0.299166
0.300233
0.297166
0.290035
0.279392
0.26658
0.252682
0.23853
0.224653
0.211388
0.198667
0.186166
0.173196
0.160712
0.148019
0.134023
0.118006
0.101325
0.103137
0.0947045
0.130697
0.168418
0.195947
0.217783
0.236424
0.254759
0.269167
0.280018
0.288424
0.295276
0.299731
0.301367
0.298868
0.29239
0.282428
0.270249
0.256866
0.243104
0.229522
0.216483
0.203926
0.19153
0.178595
0.166029
0.153259
0.139125
0.122828
0.105419
0.11391
0.0991322
0.119673
0.160887
0.190386
0.212689
0.231301
0.249558
0.265501
0.277497
0.286908
0.294575
0.29962
0.301843
0.299956
0.294187
0.284981
0.273506
0.260709
0.2474
0.234178
0.221427
0.209106
0.196892
0.184056
0.171412
0.158571
0.1443
0.12773
0.109723
0.125418
0.108288
0.112091
0.152319
0.184819
0.20773
0.226399
0.2441
0.261435
0.274486
0.284848
0.293287
0.298911
0.301704
0.300473
0.29548
0.2871
0.276408
0.264276
0.251495
0.238699
0.226296
0.214275
0.202312
0.189648
0.176917
0.163999
0.149579
0.132706
0.113995
0.137222
0.118589
0.10963
0.143404
0.17933
0.202933
0.221688
0.238842
0.256885
0.270994
0.282222
0.291374
0.297578
0.300948
0.300427
0.296284
0.288814
0.278996
0.267621
0.255457
0.243159
0.231165
0.219497
0.20784
0.195411
0.182595
0.169591
0.154995
0.137779
0.118392
0.149094
0.129384
0.112614
0.13554
0.173931
0.198329
0.217137
0.233878
0.251866
0.266939
0.27892
0.288712
0.295506
0.299477
0.299728
0.296524
0.290067
0.281238
0.270735
0.259299
0.247591
0.236071
0.224797
0.213483
0.201325
0.188472
0.175395
0.16058
0.142958
0.122889
0.160991
0.140894
0.11943
0.130101
0.168807
0.193941
0.212765
0.22927
0.246455
0.262136
0.274673
0.285007
0.292372
0.296988
0.298052
0.295895
0.290578
0.282911
0.273426
0.262849
0.251842
0.240887
0.230061
0.219108
0.207234
0.194538
0.181448
0.166398
0.148278
0.127482
0.173494
0.15202
0.127505
0.127467
0.164421
0.189997
0.208873
0.225215
0.241766
0.25656
0.26921
0.279855
0.287651
0.29287
0.294763
0.293727
0.289695
0.283355
0.275107
0.265584
0.255439
0.24518
0.234884
0.22433
0.212816
0.200856
0.187961
0.17273
0.15401
0.132368
0.185755
0.162777
0.135833
0.12751
0.161668
0.187104
0.205971
0.222233
0.238417
0.252687
0.264573
0.274638
0.282313
0.287731
0.290449
0.290598
0.288139
0.283419
0.276844
0.268797
0.259816
0.250367
0.240669
0.230677
0.220028
0.208661
0.195869
0.180291
0.160786
0.138009
0.199497
0.174805
0.145394
0.131398
0.161746
0.186512
0.205468
0.221871
0.238013
0.252413
0.264209
0.274304
0.282294
0.288363
0.292108
0.293503
0.292582
0.289464
0.284403
0.277706
0.269809
0.261134
0.251931
0.24225
0.231891
0.220568
0.207411
0.191025
0.170251
0.145783
0.218731
0.192512
0.161356
0.144945
0.171889
0.196419
0.215942
0.233085
0.249762
0.265083
0.277418
0.288128
0.296873
0.303927
0.308862
0.311429
0.311789
0.309943
0.305955
0.300121
0.292839
0.28452
0.275371
0.265462
0.254646
0.242575
0.228388
0.210462
0.187558
0.160392
0.266021
0.242484
0.215475
0.203013
0.226619
0.251558
0.271952
0.289918
0.306875
0.322896
0.335753
0.34696
0.355997
0.363934
0.369389
0.372257
0.372823
0.371148
0.367138
0.361151
0.35362
0.344943
0.335266
0.324528
0.312363
0.298729
0.283029
0.263976
0.239727
0.210355
0.469423
0.460511
0.452106
0.451501
0.466053
0.483189
0.494516
0.502776
0.510017
0.516668
0.522868
0.528457
0.532174
0.538178
0.540789
0.541759
0.54135
0.539962
0.537086
0.533519
0.529527
0.52556
0.52135
0.516016
0.507121
0.497636
0.487431
0.476605
0.46157
0.441433
0.101637
0.127455
0.14189
0.151224
0.156088
0.156965
0.154617
0.149937
0.143728
0.136779
0.129574
0.122715
0.116374
0.110882
0.105467
0.0988935
0.0906396
0.0811893
0.071234
0.0612782
0.0515984
0.0431308
0.0368444
0.0327727
0.0299239
0.0274139
0.0246865
0.02618
0.0346441
0.0406878
0.162662
0.200993
0.223284
0.237468
0.244551
0.245271
0.241113
0.233533
0.223704
0.212592
0.200724
0.188745
0.176546
0.164063
0.149893
0.133633
0.116763
0.101261
0.0878842
0.0766744
0.067003
0.0588636
0.0533274
0.049989
0.0487758
0.0477714
0.0450173
0.0456484
0.0547576
0.0652732
0.192824
0.242432
0.274952
0.297271
0.310324
0.31492
0.31256
0.305323
0.294656
0.281796
0.267467
0.25248
0.236796
0.22033
0.201312
0.179242
0.156236
0.135495
0.117987
0.103756
0.0918803
0.0819201
0.0748003
0.070254
0.0676455
0.0646814
0.059337
0.0550015
0.063526
0.0813601
0.204863
0.264734
0.305231
0.334789
0.354038
0.363469
0.364154
0.358691
0.348755
0.335775
0.320596
0.304186
0.28658
0.267716
0.245579
0.219547
0.192206
0.16737
0.146477
0.129634
0.115739
0.104082
0.0953067
0.0894301
0.0853717
0.0803014
0.0722698
0.0644431
0.0710083
0.095365
0.205107
0.268473
0.32092
0.358002
0.383228
0.397763
0.402225
0.399176
0.390797
0.37861
0.363558
0.346734
0.328231
0.307972
0.283701
0.254767
0.224249
0.196251
0.172636
0.153606
0.137976
0.12485
0.114555
0.107372
0.102077
0.0951462
0.0847119
0.0740607
0.078649
0.107918
0.199062
0.264037
0.323094
0.370618
0.402111
0.421757
0.430337
0.430063
0.42371
0.412876
0.398622
0.382091
0.36342
0.342467
0.316691
0.285635
0.252778
0.222342
0.196537
0.175684
0.158583
0.144198
0.132599
0.12422
0.117865
0.109361
0.0968759
0.0835783
0.0859971
0.119216
0.188044
0.255405
0.319421
0.373319
0.413637
0.437993
0.450725
0.453556
0.449453
0.440335
0.427324
0.41161
0.393299
0.372175
0.345347
0.3128
0.278272
0.245997
0.218444
0.196069
0.177706
0.162236
0.149556
0.140134
0.13287
0.123061
0.108888
0.093079
0.0929592
0.128292
0.17474
0.244505
0.312667
0.371022
0.417319
0.448274
0.464959
0.471135
0.469402
0.462231
0.450776
0.436251
0.418695
0.397761
0.370279
0.336754
0.301071
0.267534
0.238585
0.214948
0.195496
0.179094
0.165538
0.15525
0.147231
0.136369
0.120857
0.102852
0.0995939
0.134892
0.161914
0.233352
0.304286
0.366152
0.416203
0.452976
0.474184
0.483839
0.484593
0.479501
0.469818
0.456754
0.440229
0.419748
0.391958
0.357892
0.321504
0.287154
0.257144
0.232476
0.212088
0.194901
0.180668
0.169697
0.161088
0.149409
0.132858
0.113039
0.106203
0.139158
0.149866
0.223018
0.295496
0.359666
0.412717
0.452755
0.479552
0.492408
0.495872
0.492895
0.485126
0.473704
0.458404
0.438562
0.410775
0.376552
0.339843
0.305034
0.27428
0.24879
0.227614
0.209802
0.195071
0.183596
0.174574
0.162296
0.14495
0.123644
0.112815
0.14161
0.138644
0.213416
0.287381
0.352369
0.40748
0.4503
0.480312
0.497471
0.503833
0.503035
0.497263
0.48759
0.473655
0.454564
0.427073
0.393028
0.356327
0.321319
0.290156
0.264017
0.24221
0.223925
0.208864
0.197066
0.187812
0.175142
0.1572
0.134657
0.119887
0.142993
0.128011
0.20424
0.279374
0.344971
0.401053
0.446052
0.478699
0.499417
0.508924
0.510464
0.506713
0.49883
0.486349
0.468104
0.441171
0.40759
0.371174
0.336197
0.304875
0.278276
0.255994
0.23739
0.222154
0.210219
0.20091
0.188051
0.16968
0.146103
0.127744
0.144281
0.117496
0.195236
0.271292
0.33759
0.393925
0.44045
0.475418
0.498691
0.511671
0.515639
0.513893
0.507803
0.496813
0.479529
0.453373
0.420498
0.384593
0.349841
0.318549
0.291683
0.269081
0.250301
0.235033
0.223152
0.21397
0.201127
0.182472
0.158014
0.136372
0.14623
0.10897
0.186297
0.262974
0.330057
0.386487
0.433919
0.470833
0.4965
0.511993
0.518869
0.519185
0.514868
0.505379
0.489171
0.463982
0.432011
0.396795
0.362429
0.33129
0.304364
0.281585
0.262767
0.247592
0.235955
0.227101
0.214475
0.195665
0.170452
0.145648
0.14936
0.103178
0.176863
0.254228
0.322134
0.378839
0.426814
0.465306
0.493148
0.510958
0.520592
0.522984
0.520382
0.512387
0.497369
0.473306
0.442398
0.408009
0.374152
0.343276
0.316437
0.293628
0.274906
0.259943
0.248731
0.240409
0.228213
0.209376
0.183355
0.155848
0.15365
0.10033
0.165764
0.244754
0.313685
0.370949
0.419368
0.459183
0.488955
0.508969
0.520826
0.525559
0.524701
0.518195
0.504479
0.481678
0.451956
0.418501
0.385227
0.354713
0.328061
0.305352
0.28686
0.272217
0.261604
0.254015
0.242467
0.223741
0.197003
0.167291
0.15885
0.102919
0.152671
0.234173
0.304691
0.362805
0.411878
0.45276
0.484236
0.506311
0.520314
0.527263
0.528227
0.523208
0.510897
0.489471
0.461034
0.428586
0.396006
0.365874
0.339454
0.316953
0.298796
0.284576
0.274718
0.268052
0.25738
0.238902
0.211408
0.179785
0.16525
0.116462
0.141696
0.222068
0.295181
0.35447
0.404384
0.446247
0.479299
0.5033
0.519432
0.528484
0.531427
0.527876
0.517077
0.497131
0.470061
0.438662
0.406862
0.377115
0.350929
0.328689
0.310944
0.297235
0.288267
0.282689
0.273122
0.255012
0.226776
0.193264
0.172537
0.133853
0.137506
0.208859
0.285208
0.346146
0.396947
0.439844
0.474442
0.500278
0.518509
0.529711
0.534793
0.532757
0.523587
0.505232
0.479608
0.449346
0.418301
0.388931
0.362947
0.34096
0.323642
0.310497
0.302528
0.298172
0.289925
0.272266
0.243214
0.207585
0.181413
0.155192
0.143537
0.196731
0.274882
0.338091
0.389729
0.433897
0.469984
0.497641
0.517909
0.531584
0.539002
0.538606
0.531182
0.514563
0.490463
0.46146
0.431122
0.402077
0.376187
0.354395
0.337426
0.324878
0.317945
0.314904
0.308136
0.290957
0.260911
0.223107
0.191898
0.180005
0.159999
0.189042
0.264582
0.330472
0.383126
0.428555
0.466335
0.495832
0.518119
0.535003
0.545011
0.546585
0.540966
0.526307
0.503943
0.4762
0.446562
0.417738
0.391774
0.370039
0.353219
0.341383
0.335328
0.333593
0.328306
0.311485
0.280079
0.239335
0.203614
0.207976
0.180922
0.18711
0.255301
0.323531
0.377413
0.424227
0.464167
0.4954
0.521568
0.54151
0.554367
0.558425
0.554763
0.542405
0.522025
0.495683
0.466739
0.43795
0.411812
0.389771
0.372987
0.361685
0.356308
0.355525
0.351357
0.334474
0.301067
0.256559
0.216381
0.239081
0.205273
0.191817
0.248376
0.317677
0.373023
0.421596
0.463972
0.50014
0.530283
0.553637
0.569753
0.577047
0.575892
0.566362
0.548478
0.523861
0.495667
0.466795
0.440329
0.41801
0.40082
0.389337
0.384002
0.383117
0.37896
0.361031
0.324493
0.274925
0.229511
0.273493
0.231541
0.203927
0.244994
0.31367
0.370813
0.422225
0.471294
0.514334
0.548654
0.576036
0.596444
0.608093
0.610903
0.605078
0.590864
0.568789
0.54219
0.513939
0.486943
0.463354
0.444575
0.431449
0.42441
0.421059
0.41446
0.393414
0.35177
0.295333
0.2436
0.313539
0.261703
0.220566
0.24628
0.313285
0.376013
0.435642
0.492016
0.543608
0.585162
0.618888
0.645522
0.663526
0.672976
0.673379
0.665201
0.647965
0.624446
0.597077
0.568799
0.542402
0.519661
0.501467
0.488257
0.478288
0.464648
0.43653
0.386242
0.320444
0.26046
0.3632
0.301321
0.24774
0.263326
0.331151
0.402582
0.471663
0.53853
0.602085
0.654524
0.699176
0.736398
0.764341
0.783997
0.794353
0.79444
0.784185
0.765147
0.738884
0.708259
0.676817
0.646857
0.619126
0.593992
0.57023
0.542625
0.501127
0.436287
0.356386
0.284811
0.440373
0.368843
0.305106
0.311976
0.388707
0.474885
0.558882
0.640726
0.720213
0.788063
0.847031
0.89778
0.937828
0.969816
0.99247
1.00255
1.00122
0.988233
0.963929
0.930566
0.89216
0.851838
0.810039
0.766938
0.721962
0.671736
0.608383
0.521562
0.421358
0.332215
0.586166
0.513137
0.448027
0.455057
0.54597
0.65205
0.75392
0.851292
0.944429
1.0255
1.09497
1.15526
1.20365
1.24239
1.27123
1.28678
1.2904
1.28054
1.25582
1.21863
1.17309
1.12296
1.06889
1.01058
0.94684
0.874949
0.789564
0.682415
0.561439
0.45011
0.834023
0.788004
0.754895
0.777657
0.873113
0.981715
1.08125
1.17341
1.25938
1.33362
1.39486
1.44628
1.48494
1.51143
1.52172
1.51885
1.50505
1.47812
1.43923
1.39243
1.34125
1.28889
1.23757
1.18742
1.13636
1.07802
1.00852
0.922937
0.821473
0.719759
1.03134
1.03044
1.047
1.08902
1.15348
1.21981
1.28108
1.33967
1.39357
1.43926
1.47505
1.50124
1.51514
1.51601
1.49167
1.45423
1.4134
1.36577
1.3166
1.26857
1.22433
1.18491
1.15168
1.12565
1.10596
1.09273
1.08089
1.06443
1.03852
1.01306
0.129179
0.164318
0.182703
0.195679
0.203455
0.206203
0.204615
0.199688
0.192307
0.183382
0.173418
0.163109
0.152472
0.141822
0.129994
0.115753
0.0994377
0.0827886
0.0672899
0.0534204
0.040451
0.0326779
0.0313902
0.0289589
0.0284822
0.0260579
0.0268698
0.0337144
0.0437454
0.0480833
0.207531
0.264362
0.297206
0.317189
0.327443
0.329235
0.324478
0.314878
0.301726
0.28611
0.268533
0.249672
0.229075
0.206528
0.180842
0.154802
0.131798
0.113969
0.100209
0.0882402
0.0742679
0.0596747
0.0538837
0.0522464
0.0465053
0.0422212
0.0435588
0.0533959
0.069933
0.0854686
0.251175
0.32228
0.368582
0.398087
0.414574
0.420074
0.416759
0.407019
0.392307
0.373883
0.352445
0.328824
0.302593
0.273472
0.240282
0.206241
0.176487
0.154031
0.137128
0.122743
0.106028
0.0875481
0.0778544
0.0739387
0.0656726
0.0579913
0.0559585
0.0639303
0.0842868
0.113149
0.271534
0.356605
0.411678
0.449158
0.471993
0.482308
0.481879
0.473747
0.459487
0.440426
0.417409
0.391314
0.361858
0.328745
0.290641
0.251233
0.216509
0.190035
0.170057
0.153321
0.134502
0.113526
0.100318
0.0935847
0.083506
0.0733215
0.0675062
0.0731938
0.0956952
0.135557
0.278616
0.366674
0.436046
0.480972
0.510384
0.526187
0.529678
0.524019
0.511253
0.492729
0.469403
0.442178
0.410899
0.375304
0.333645
0.290428
0.252102
0.222328
0.199684
0.180935
0.160617
0.138112
0.12203
0.112563
0.100751
0.0882939
0.0790597
0.0822384
0.105963
0.154738
0.275161
0.36343
0.440249
0.498669
0.535052
0.556821
0.565022
0.562411
0.551804
0.534572
0.511737
0.484314
0.452186
0.415026
0.370771
0.324842
0.283911
0.251493
0.226612
0.206188
0.184847
0.161442
0.143181
0.131267
0.117766
0.103239
0.0909353
0.0910967
0.114957
0.171586
0.265826
0.354151
0.435677
0.501517
0.549552
0.577322
0.590716
0.591656
0.583643
0.568218
0.546479
0.519536
0.487261
0.449177
0.403116
0.355361
0.312603
0.278106
0.251365
0.229527
0.207435
0.183595
0.163813
0.149839
0.134687
0.1183
0.103328
0.0999828
0.122886
0.185122
0.250638
0.340435
0.426447
0.497864
0.553216
0.589913
0.608564
0.613639
0.608443
0.595193
0.575014
0.549058
0.517209
0.478655
0.431518
0.382689
0.338715
0.30267
0.274365
0.2513
0.228619
0.204657
0.183949
0.168341
0.151671
0.13358
0.11629
0.109259
0.13006
0.195301
0.232605
0.323934
0.414236
0.490624
0.551055
0.595159
0.619984
0.629619
0.627428
0.616626
0.598362
0.573803
0.542846
0.50418
0.456665
0.407423
0.36273
0.325586
0.295952
0.271799
0.24864
0.224773
0.203626
0.186814
0.168808
0.149157
0.129817
0.119226
0.136853
0.202523
0.214995
0.307247
0.40063
0.481066
0.54595
0.59443
0.626615
0.640527
0.6416
0.633418
0.61734
0.594516
0.564779
0.526439
0.479175
0.430094
0.385098
0.347193
0.316421
0.291292
0.267741
0.244127
0.222906
0.205302
0.186182
0.165141
0.143926
0.130013
0.143612
0.207391
0.198366
0.29164
0.387039
0.47033
0.538764
0.591124
0.627436
0.647013
0.651821
0.646334
0.632654
0.611846
0.583576
0.546051
0.499614
0.451185
0.406224
0.367796
0.336047
0.310032
0.286172
0.262907
0.241905
0.223858
0.203882
0.181636
0.158675
0.141572
0.150769
0.210516
0.182626
0.277255
0.374367
0.459335
0.530286
0.585845
0.625619
0.650094
0.658714
0.656042
0.644936
0.626397
0.59978
0.563601
0.518523
0.471153
0.426482
0.387693
0.355098
0.328269
0.304168
0.281313
0.26079
0.242568
0.221999
0.19874
0.174159
0.153958
0.158671
0.212751
0.16762
0.263914
0.362614
0.448881
0.521189
0.579199
0.622036
0.64972
0.662776
0.66318
0.654779
0.63868
0.614008
0.579676
0.536426
0.490436
0.44624
0.407165
0.373861
0.346257
0.321968
0.29955
0.279712
0.261547
0.240646
0.216565
0.19048
0.167258
0.167463
0.215087
0.153875
0.251242
0.351548
0.439006
0.511985
0.571762
0.617185
0.647879
0.664928
0.668413
0.662767
0.649248
0.626882
0.594861
0.553837
0.509467
0.465867
0.426558
0.392604
0.364267
0.339821
0.317859
0.298858
0.280957
0.259962
0.235253
0.207738
0.181721
0.176977
0.218164
0.142302
0.23879
0.340789
0.429607
0.503207
0.564025
0.611575
0.64499
0.664908
0.672177
0.669497
0.65871
0.639035
0.609752
0.571277
0.528696
0.48577
0.44625
0.411655
0.382622
0.358024
0.336549
0.318488
0.300992
0.280105
0.254976
0.226031
0.197365
0.187277
0.222492
0.134045
0.22585
0.329918
0.420453
0.49487
0.556326
0.605666
0.64152
0.66429
0.675079
0.675644
0.667762
0.651126
0.624964
0.589295
0.548621
0.506421
0.466703
0.431444
0.40174
0.376967
0.35606
0.338946
0.321907
0.301268
0.275838
0.245477
0.214219
0.199114
0.228292
0.131001
0.212217
0.318585
0.411348
0.486928
0.549153
0.599857
0.637917
0.663473
0.677703
0.682035
0.677217
0.663864
0.641168
0.608516
0.56985
0.528429
0.488522
0.452561
0.422194
0.397224
0.37709
0.360717
0.344044
0.323705
0.29804
0.266224
0.232292
0.21243
0.235538
0.137225
0.200087
0.306704
0.402234
0.479337
0.54258
0.594465
0.634597
0.662879
0.68086
0.689416
0.687994
0.678104
0.65915
0.629717
0.593183
0.55263
0.512566
0.475881
0.444844
0.419704
0.400393
0.384463
0.367897
0.347768
0.32184
0.288396
0.2516
0.227163
0.244324
0.153927
0.193316
0.294867
0.393213
0.472135
0.536657
0.589757
0.631971
0.662863
0.685526
0.698639
0.701202
0.695003
0.679911
0.653958
0.619761
0.580249
0.540104
0.502747
0.471097
0.446037
0.427139
0.411132
0.394197
0.37399
0.347606
0.312107
0.27222
0.242711
0.254728
0.176176
0.194154
0.284464
0.384543
0.46543
0.531472
0.586189
0.630489
0.665084
0.692993
0.710918
0.718202
0.716088
0.704902
0.682799
0.65131
0.613167
0.573109
0.535395
0.503364
0.478506
0.459115
0.442135
0.424088
0.40323
0.375943
0.337756
0.294099
0.25932
0.266463
0.203726
0.204271
0.277308
0.376673
0.459404
0.527154
0.583967
0.630789
0.671917
0.705049
0.72809
0.740726
0.743496
0.736469
0.71869
0.69056
0.654393
0.614956
0.577546
0.54587
0.520143
0.498982
0.479537
0.459401
0.436919
0.407867
0.366095
0.317619
0.276877
0.279429
0.234336
0.223033
0.274346
0.370336
0.454285
0.523993
0.583563
0.637328
0.685563
0.724262
0.752938
0.771642
0.780457
0.7784
0.765599
0.741984
0.708866
0.671511
0.635777
0.603441
0.575399
0.550596
0.526955
0.503157
0.477461
0.445131
0.398471
0.343498
0.295522
0.292928
0.267817
0.245831
0.276745
0.36578
0.450697
0.523195
0.589894
0.654307
0.709782
0.754731
0.790117
0.815957
0.832114
0.836859
0.830407
0.813036
0.785306
0.751891
0.717141
0.682803
0.650362
0.619872
0.590114
0.560306
0.528866
0.490817
0.436912
0.37322
0.31627
0.306959
0.305578
0.273056
0.28584
0.364154
0.450794
0.532472
0.611547
0.685009
0.75052
0.803861
0.847777
0.882311
0.907559
0.921675
0.924586
0.915692
0.894788
0.864884
0.830021
0.792386
0.754252
0.716131
0.677626
0.638531
0.597641
0.55032
0.485905
0.410278
0.34122
0.324046
0.352794
0.3099
0.306555
0.375693
0.469236
0.563733
0.65411
0.739977
0.817967
0.882687
0.938439
0.984887
1.02148
1.04675
1.06072
1.06
1.04579
1.01965
0.984503
0.942864
0.897716
0.85005
0.799986
0.748022
0.693594
0.632514
0.553654
0.46194
0.376241
0.349734
0.422507
0.36764
0.350058
0.417872
0.521053
0.629922
0.736412
0.836742
0.93046
1.00952
1.07896
1.13854
1.1871
1.22334
1.24855
1.25496
1.246
1.22191
1.18509
1.13824
1.08512
1.02726
0.9649
0.898586
0.828508
0.750827
0.654453
0.542046
0.434314
0.395267
0.543409
0.478169
0.451262
0.518209
0.637112
0.76461
0.888046
1.00397
1.11257
1.20557
1.28679
1.35697
1.41433
1.45707
1.48778
1.49463
1.48275
1.45305
1.40917
1.35328
1.29073
1.22519
1.15702
1.08522
1.00701
0.917647
0.807834
0.676851
0.54554
0.489146
0.762842
0.69725
0.671297
0.73802
0.867409
1.00735
1.14023
1.26283
1.3758
1.47344
1.55675
1.62778
1.68358
1.72045
1.73866
1.72566
1.68813
1.63481
1.57321
1.50699
1.44006
1.37556
1.31386
1.25283
1.1879
1.11171
1.01411
0.891381
0.757025
0.68571
1.0531
1.02276
1.0191
1.08499
1.20347
1.33067
1.44996
1.55867
1.65639
1.74062
1.80958
1.86479
1.89941
1.90635
1.88246
1.82234
1.75202
1.67448
1.59753
1.52499
1.46035
1.40548
1.36082
1.32429
1.2908
1.25316
1.20117
1.12916
1.04586
0.996041
1.19422
1.19752
1.22683
1.28968
1.37619
1.46786
1.55944
1.64498
1.7215
1.78635
1.83422
1.86322
1.86912
1.83989
1.77515
1.68218
1.58871
1.49616
1.41193
1.33993
1.28332
1.24203
1.21597
1.20411
1.20292
1.20951
1.2136
1.20881
1.19742
1.19475
0.159377
0.199453
0.219221
0.233248
0.242591
0.246523
0.245461
0.240345
0.232008
0.221378
0.208881
0.19525
0.180271
0.164246
0.145562
0.123409
0.100498
0.0814442
0.0684881
0.0589646
0.045828
0.0345298
0.0306231
0.02904
0.0275679
0.0268596
0.0324042
0.0419563
0.0529788
0.0576896
0.256042
0.322776
0.360219
0.38463
0.397228
0.399463
0.393725
0.381984
0.365635
0.345792
0.32278
0.297187
0.268137
0.235281
0.199025
0.166636
0.144304
0.132927
0.125683
0.11415
0.0886104
0.058715
0.0479177
0.0462466
0.0430406
0.0427281
0.0498974
0.0656127
0.0888404
0.120345
0.314279
0.396651
0.45079
0.48638
0.505046
0.509991
0.504672
0.491815
0.472892
0.44906
0.420747
0.388612
0.3518
0.309773
0.263329
0.222433
0.195064
0.181096
0.171135
0.155287
0.122903
0.0833649
0.0681069
0.0642845
0.059426
0.0569392
0.0624642
0.0793518
0.110012
0.160326
0.345031
0.443046
0.509101
0.553501
0.578132
0.586928
0.583512
0.571444
0.552218
0.526914
0.496015
0.460166
0.418685
0.371013
0.317934
0.271309
0.239617
0.222267
0.209093
0.189724
0.152951
0.108659
0.0890354
0.0822258
0.0754433
0.0705218
0.0736846
0.0905031
0.126925
0.189677
0.360965
0.465223
0.546341
0.598071
0.629034
0.642782
0.642401
0.632231
0.613896
0.588443
0.556395
0.518379
0.473908
0.422395
0.364599
0.314022
0.278981
0.258501
0.242509
0.220725
0.18181
0.135605
0.111334
0.100824
0.0917294
0.0841836
0.0848344
0.100861
0.141131
0.214197
0.362284
0.469279
0.561533
0.625624
0.663359
0.683031
0.686957
0.679487
0.662881
0.638162
0.605897
0.566781
0.520481
0.466135
0.404967
0.351756
0.314294
0.291158
0.272841
0.24953
0.210536
0.163764
0.135151
0.120406
0.108588
0.0983312
0.096235
0.110698
0.153209
0.233808
0.355567
0.46323
0.560425
0.635812
0.684692
0.710941
0.720288
0.716187
0.701965
0.678638
0.646906
0.607496
0.560214
0.503706
0.440355
0.385644
0.346546
0.321227
0.300965
0.276749
0.238391
0.192404
0.159979
0.14108
0.12623
0.11313
0.108063
0.120428
0.163691
0.249497
0.342375
0.450763
0.552697
0.634081
0.694013
0.728871
0.744439
0.744312
0.732971
0.71157
0.680966
0.641911
0.594325
0.536282
0.471877
0.416662
0.376581
0.349482
0.327721
0.30282
0.265488
0.220549
0.185406
0.162519
0.144723
0.128697
0.120433
0.130368
0.173055
0.261919
0.323426
0.433555
0.539987
0.627305
0.69339
0.739112
0.760837
0.765444
0.757247
0.738199
0.709224
0.67111
0.623716
0.564918
0.500559
0.445696
0.405147
0.376563
0.353434
0.328077
0.291936
0.248325
0.211248
0.184548
0.163766
0.145161
0.133456
0.140808
0.181726
0.271588
0.304138
0.413664
0.524086
0.616848
0.688852
0.74059
0.770791
0.780702
0.775891
0.759537
0.732636
0.696013
0.649198
0.590586
0.527342
0.473559
0.432918
0.403041
0.37858
0.352828
0.317901
0.275964
0.237367
0.20717
0.183385
0.162333
0.147271
0.151842
0.190115
0.279013
0.285397
0.394276
0.506719
0.604073
0.68136
0.73821
0.77545
0.791001
0.789849
0.77648
0.752052
0.71738
0.671669
0.614261
0.553121
0.501016
0.460521
0.429431
0.403609
0.377404
0.343659
0.303502
0.263725
0.230412
0.203668
0.180189
0.162011
0.163675
0.198649
0.284846
0.267229
0.375707
0.48974
0.590218
0.671933
0.733437
0.775144
0.797121
0.800094
0.789879
0.768276
0.735961
0.692073
0.636927
0.578779
0.528793
0.488544
0.456234
0.428971
0.402187
0.369607
0.3311
0.290378
0.25437
0.224751
0.198841
0.177793
0.176559
0.207608
0.289784
0.249525
0.358113
0.473601
0.576517
0.661503
0.727016
0.772944
0.800253
0.807448
0.80057
0.782129
0.752586
0.711387
0.659577
0.605187
0.557581
0.517557
0.483941
0.455148
0.427616
0.396298
0.359065
0.317543
0.279207
0.246828
0.218441
0.194711
0.190313
0.217306
0.294555
0.232316
0.341487
0.458516
0.563431
0.650803
0.719667
0.769383
0.800341
0.812555
0.809414
0.794446
0.768209
0.730638
0.683192
0.633165
0.588041
0.548133
0.513078
0.482651
0.454233
0.424099
0.387781
0.345522
0.305165
0.27016
0.239189
0.212686
0.204842
0.228029
0.299928
0.216114
0.32571
0.4445
0.551257
0.640549
0.712005
0.765063
0.799597
0.816348
0.817386
0.806209
0.783835
0.750875
0.708718
0.663493
0.620816
0.580884
0.54423
0.512079
0.4828
0.453572
0.417714
0.374695
0.332561
0.29506
0.261363
0.231806
0.220297
0.239821
0.306308
0.202329
0.310684
0.431373
0.540087
0.631015
0.704507
0.760533
0.798521
0.819648
0.825582
0.818512
0.800628
0.773154
0.737066
0.696941
0.656586
0.616492
0.578124
0.544244
0.514487
0.485485
0.449426
0.40553
0.361783
0.321882
0.285274
0.252266
0.236768
0.252841
0.313947
0.19276
0.296609
0.418999
0.529871
0.62239
0.69759
0.756264
0.797588
0.823272
0.834923
0.832545
0.819937
0.798585
0.76914
0.734308
0.696144
0.655796
0.615717
0.580317
0.55052
0.52078
0.483546
0.438635
0.393308
0.351043
0.311266
0.274299
0.254262
0.267084
0.32298
0.189162
0.284523
0.407528
0.520609
0.614786
0.69167
0.752672
0.797218
0.82848
0.846357
0.849692
0.843088
0.828624
0.805898
0.776562
0.740525
0.699935
0.658321
0.622143
0.592055
0.560535
0.521141
0.47483
0.427775
0.383067
0.33979
0.298173
0.272752
0.282382
0.333397
0.193934
0.276258
0.397409
0.512384
0.608252
0.686923
0.750183
0.798476
0.836566
0.861133
0.87139
0.871613
0.864732
0.848818
0.825021
0.791186
0.75056
0.707935
0.672241
0.64068
0.605911
0.563573
0.51525
0.466104
0.418704
0.371448
0.324316
0.292408
0.298511
0.345086
0.208936
0.273038