/*--------------------------------*- C++ -*----------------------------------*\
| =========                 |                                                 |
| \\      /  F ield         | OpenFOAM: The Open Source CFD Toolbox           |
|  \\    /   O peration     | Version:  5.0                                   |
|   \\  /    A nd           | Web:      www.OpenFOAM.org                      |
|    \\/     M anipulation  |                                                 |
\*---------------------------------------------------------------------------*/
FoamFile
{
    version     2.0;
    format      ascii;
    class       volScalarField;
    location    "850/air";
    object      nut;
}
// * * * * * * * * * * * * * * * * * * * * * * * * * * * * * * * * * * * * * //

dimensions      [0 2 -1 0 0 0 0];

internalField   nonuniform List<scalar> 
243000
(
0.000139523
0.000147249
0.000147669
0.000145526
0.000141532
0.000136288
0.000130336
0.000124132
0.000118014
0.000112279
0.000107105
0.00010274
9.93299e-05
9.7132e-05
9.59006e-05
9.50631e-05
9.41549e-05
9.31068e-05
9.20095e-05
9.09577e-05
9.00054e-05
8.92311e-05
8.8861e-05
8.85521e-05
8.77291e-05
8.57269e-05
8.14458e-05
0.00035741
8.08161e-05
9.7238e-05
0.000608707
0.000669598
0.000700192
0.000717257
0.00072487
0.000724647
0.000718541
0.00070812
0.000694813
0.000680047
0.000664812
0.000650662
0.00063823
0.00062846
0.00061891
0.000606675
0.000590838
0.000573005
0.000554498
0.000536169
0.000518286
0.000501375
0.000486731
0.000473558
0.00045893
0.000440481
0.000413945
0.000380161
0.000374115
0.000419808
0.000657889
0.000724751
0.000763654
0.000785482
0.000796435
0.000798441
0.000793631
0.000783949
0.000770988
0.00075632
0.000740962
0.000726505
0.000713564
0.000702815
0.000691269
0.000675789
0.000655726
0.000633445
0.000610731
0.000588684
0.00056763
0.000547933
0.000530459
0.000514719
0.000498366
0.000479183
0.00045359
0.000420223
0.000405291
0.000451888
0.000679691
0.000755233
0.000801884
0.000828774
0.00084374
0.000848871
0.000846248
0.000838252
0.000826627
0.000813055
0.000798609
0.000784885
0.000772424
0.000761666
0.00074928
0.000731984
0.000709281
0.000683972
0.000658176
0.000633237
0.000609576
0.000587481
0.000567519
0.000549056
0.00053052
0.000509883
0.000483957
0.000450843
0.00043028
0.000475172
0.000685555
0.000766994
0.000824267
0.000856522
0.000875715
0.000884345
0.000884369
0.000878513
0.000868702
0.000856734
0.000843713
0.000831239
0.000819735
0.000809423
0.000796738
0.000778399
0.000754069
0.000726748
0.000698794
0.000671727
0.000646062
0.000622049
0.000600034
0.000579276
0.000558529
0.000536281
0.000509548
0.000476054
0.000451103
0.000493145
0.000681635
0.000767594
0.000833345
0.000873686
0.000897112
0.000909358
0.000912326
0.000908822
0.000901076
0.000890975
0.000879664
0.000868726
0.000858449
0.000848836
0.000836159
0.000817243
0.000791946
0.000763344
0.000733922
0.000705333
0.000678176
0.000652666
0.000629007
0.00060641
0.000583664
0.00055991
0.000532262
0.0004982
0.000469521
0.000507332
0.000672293
0.000761944
0.000833106
0.000882109
0.000910821
0.000926636
0.000932693
0.000931683
0.000926134
0.000918045
0.000908611
0.000899386
0.00089049
0.000881738
0.000869262
0.000850083
0.000824305
0.000794931
0.000764564
0.000734923
0.000706675
0.00068002
0.000655073
0.000631026
0.000606571
0.000581506
0.000553009
0.000518384
0.00048639
0.000517835
0.000662053
0.000752301
0.000828007
0.000882982
0.000918105
0.000937904
0.000947128
0.000948744
0.000945464
0.000939473
0.000932018
0.000924608
0.000917197
0.000909394
0.000897265
0.000878069
0.00085215
0.000822409
0.000791486
0.000761162
0.000732146
0.000704642
0.000678702
0.00065352
0.000627644
0.000601484
0.000572273
0.000537222
0.000502316
0.000525426
0.000651515
0.000740611
0.000819276
0.000878829
0.000919756
0.00094433
0.000956757
0.00096115
0.000960178
0.000956343
0.000950927
0.000945401
0.000939521
0.000932724
0.000921053
0.000902044
0.000876245
0.000846453
0.000815292
0.000784574
0.00075505
0.000726941
0.000700256
0.000674196
0.000647165
0.000620115
0.000590335
0.000555249
0.000517598
0.000530868
0.000640084
0.000729801
0.00080793
0.000871254
0.000916927
0.00094608
0.000962443
0.000969677
0.000971112
0.000969461
0.000966122
0.000962509
0.000958178
0.000952413
0.000941293
0.000922639
0.000897152
0.000867594
0.000836439
0.000805563
0.000775744
0.000747241
0.000720021
0.000693295
0.000665348
0.000637602
0.00060739
0.00057222
0.000532413
0.000534884
0.000627268
0.000718908
0.000796346
0.000860962
0.000910574
0.000944246
0.000964449
0.000974867
0.00097889
0.00097945
0.000978203
0.000976503
0.000973718
0.000968999
0.000958493
0.000940342
0.000915337
0.00088621
0.000855289
0.000824449
0.00079452
0.000765793
0.00073822
0.000711013
0.00068237
0.000654101
0.000623598
0.000588235
0.000547085
0.000538337
0.000612464
0.000707279
0.000785064
0.000848819
0.000901527
0.000939418
0.000963313
0.000977273
0.000983948
0.00098682
0.000987648
0.000987834
0.000986579
0.000982902
0.000973065
0.000955537
0.000931162
0.000902611
0.000872135
0.000841498
0.00081161
0.000782812
0.000755042
0.000727522
0.000698422
0.00066975
0.000639105
0.000603607
0.000562133
0.000542125
0.000593919
0.000694293
0.000773641
0.000837607
0.000890437
0.000931938
0.000959813
0.000976876
0.000986681
0.000991916
0.000994831
0.000996891
0.000997113
0.00099446
0.00098534
0.000968539
0.000944919
0.000917072
0.000887193
0.000856926
0.000827212
0.000798471
0.000770636
0.000742955
0.000713617
0.00068466
0.000653898
0.000618415
0.000576645
0.000547324
0.000572319
0.000679224
0.000761574
0.000826463
0.000878881
0.00092232
0.000954193
0.000974503
0.000987165
0.000995017
0.00100005
0.00100395
0.00100562
0.00100395
0.000995595
0.000979606
0.000956848
0.000929821
0.000900644
0.000870903
0.000841487
0.000812918
0.000785139
0.000757436
0.000728012
0.000698914
0.000668103
0.000632744
0.000590722
0.000554932
0.000550097
0.000661071
0.000748352
0.000815038
0.000867748
0.000911234
0.000946622
0.000970448
0.000985902
0.000996478
0.00100356
0.00100926
0.00101232
0.00101162
0.00100406
0.000988956
0.000967153
0.000941045
0.000912666
0.000883553
0.000854582
0.000826299
0.000798696
0.000771088
0.000741713
0.000712587
0.000681837
0.000646653
0.000604845
0.000564572
0.000535023
0.000638247
0.000733333
0.000803039
0.000856728
0.000900128
0.00093743
0.000964958
0.000983225
0.000996235
0.00100562
0.001013
0.00101741
0.00101764
0.00101092
0.000996779
0.000976012
0.00095091
0.000923419
0.000895022
0.000866599
0.000838753
0.000811439
0.000784029
0.00075483
0.000725772
0.000695191
0.000660216
0.000618446
0.000574905
0.000548661
0.000607663
0.000715638
0.000790181
0.000845639
0.000889456
0.000927049
0.000958187
0.000979348
0.000994758
0.00100625
0.00101534
0.00102102
0.00102221
0.00101637
0.00100324
0.000983582
0.000959571
0.000933047
0.000905448
0.000877674
0.000850371
0.000823486
0.000796386
0.00076748
0.000738586
0.000708239
0.000673496
0.000631755
0.000585879
0.000576175
0.000579583
0.000693643
0.000776164
0.000834347
0.000879015
0.000916152
0.000950266
0.00097445
0.000992207
0.00100563
0.00101648
0.00102329
0.00102546
0.00102053
0.00100848
0.000990008
0.000967174
0.000941697
0.000914972
0.00088794
0.000861286
0.000834948
0.000808292
0.000779783
0.000751116
0.000721052
0.00068657
0.0006449
0.00059732
0.000605607
0.000571503
0.000665437
0.000760579
0.000822762
0.000868716
0.000905972
0.000941379
0.000968651
0.000988717
0.001004
0.00101633
0.00102436
0.00102749
0.00102353
0.00101263
0.000995427
0.000973854
0.000949504
0.000923739
0.000897541
0.000871633
0.000845953
0.000819877
0.000791875
0.000763469
0.00073372
0.000699515
0.000657946
0.000609706
0.00063668
0.000593082
0.000637042
0.00074223
0.000810879
0.000858535
0.000896242
0.000931694
0.000962065
0.000984321
0.00100145
0.00101521
0.00102426
0.0010284
0.00102547
0.00101581
0.000999969
0.000979749
0.000956617
0.000931898
0.000906628
0.000881556
0.000856648
0.000831291
0.000803918
0.000775772
0.000746345
0.000712411
0.000670947
0.000622014
0.000667868
0.000620872
0.000619003
0.00072101
0.000798782
0.000848505
0.000886816
0.000921458
0.000954698
0.000979033
0.000997929
0.00101309
0.00102315
0.00102825
0.00102643
0.0010181
0.00100373
0.000984974
0.000963172
0.000939607
0.000915363
0.000891216
0.000867188
0.00084267
0.000816057
0.000788152
0.000759027
0.000725334
0.000683899
0.000634117
0.000698218
0.000649818
0.000616033
0.000698695
0.000786638
0.000838688
0.000877652
0.000911665
0.000946383
0.00097285
0.000993402
0.00100988
0.00102096
0.00102705
0.00102643
0.00101955
0.00100677
0.000989611
0.000969278
0.000947002
0.000923894
0.00090077
0.000877705
0.000854117
0.000828378
0.000800718
0.000771881
0.000738357
0.000696856
0.000646346
0.000727431
0.000678606
0.000629202
0.000679702
0.000774216
0.000829156
0.000868699
0.0009023
0.000937125
0.000965609
0.000987653
0.00100534
0.00101749
0.00102462
0.0010253
0.00102002
0.00100899
0.000993611
0.000974926
0.000954116
0.000932292
0.000910296
0.000888257
0.000865649
0.000840841
0.00081352
0.000784987
0.000751553
0.000709843
0.000658623
0.000755596
0.000707943
0.000650426
0.000667258
0.000762339
0.000819978
0.000860004
0.000893516
0.000927109
0.00095695
0.000980181
0.000998951
0.00101216
0.00102043
0.0010225
0.00101898
0.00100992
0.000996588
0.00097978
0.000960645
0.000940282
0.000919559
0.000898629
0.000877017
0.000853121
0.000826528
0.00079843
0.00076506
0.000722954
0.000670912
0.000784062
0.000735306
0.000673346
0.000662369
0.00075214
0.00081166
0.000852204
0.000885704
0.000918356
0.000946813
0.000970457
0.000989948
0.00100402
0.00101338
0.00101688
0.00101527
0.0010084
0.000997388
0.0009828
0.000965646
0.000946997
0.000927751
0.000908044
0.00088746
0.000864542
0.000839824
0.000812616
0.000779479
0.000736807
0.000683703
0.000811222
0.000760784
0.000695403
0.000664453
0.00074587
0.000805574
0.00084639
0.000879963
0.000912089
0.000939761
0.000962139
0.000980705
0.000994648
0.00100441
0.00100935
0.00100976
0.00100559
0.00099738
0.000985778
0.000971351
0.000954962
0.000937401
0.000919036
0.000899765
0.000878813
0.000855867
0.000829473
0.000796319
0.000752835
0.000698117
0.000840535
0.000788277
0.000719685
0.000675703
0.000746871
0.000804496
0.000845537
0.000879423
0.000911462
0.000939371
0.000961556
0.000980147
0.000994617
0.00100548
0.00101216
0.0010147
0.00101319
0.00100782
0.000998993
0.000987162
0.000973003
0.000957203
0.000940157
0.000921915
0.000902029
0.000879835
0.000853481
0.000819625
0.000774636
0.000717506
0.000879869
0.000826961
0.000757887
0.000710868
0.000771103
0.000826103
0.000867259
0.000901755
0.000933989
0.000962887
0.000985445
0.00100461
0.00101997
0.00103219
0.00104065
0.00104505
0.0010457
0.00104263
0.00103592
0.00102599
0.00101346
0.000998945
0.000982742
0.000964915
0.000945107
0.000922568
0.00089549
0.000860211
0.000812948
0.000752501
0.000969175
0.000926453
0.000873945
0.000842448
0.000887563
0.000936241
0.000974303
0.00100651
0.00103591
0.00106304
0.00108428
0.00110245
0.00111681
0.00112927
0.00113775
0.00114218
0.00114307
0.00114052
0.00113436
0.00112508
0.0011133
0.00109957
0.00108405
0.00106662
0.00104651
0.00102355
0.000996547
0.000962908
0.000918405
0.000860935
0.00128368
0.00127178
0.00125985
0.00125735
0.00127633
0.00129996
0.00131555
0.00132665
0.0013363
0.00134504
0.00135313
0.00136043
0.00136512
0.00137278
0.0013761
0.00137732
0.00137681
0.00137506
0.00137143
0.00136691
0.00136182
0.00135673
0.00135133
0.00134466
0.00133306
0.00132055
0.00130698
0.00129258
0.00127236
0.00124453
0.000167394
0.000180551
0.000183616
0.000182918
0.000179591
0.000174355
0.000167872
0.000160744
0.000153433
0.000146359
0.000139748
0.000133884
0.000128833
0.000124756
0.000121198
0.000117398
0.000112899
0.000107763
0.000102204
9.63403e-05
9.01664e-05
8.42353e-05
7.98732e-05
7.74872e-05
7.63433e-05
7.55614e-05
7.41961e-05
7.88811e-05
9.32431e-05
0.000105806
0.00062154
0.000749028
0.000778012
0.000778192
0.000761496
0.00073311
0.000699668
0.000665158
0.000631558
0.00059926
0.000567604
0.000536866
0.000504835
0.000469945
0.000428431
0.000383058
0.000339883
0.000305292
0.000279645
0.000262041
0.000249368
0.000242909
0.000250323
0.000268475
0.000302292
0.000330507
0.000334276
0.000375334
0.000466512
0.000549043
0.000998889
0.00125709
0.00137304
0.00142235
0.00142677
0.0013984
0.00134998
0.0012935
0.00123494
0.00117638
0.00111723
0.0010575
0.000994016
0.000923368
0.000840319
0.000749189
0.000661347
0.000590549
0.000537923
0.000501544
0.000476291
0.000462019
0.000467846
0.000487689
0.000520417
0.000534764
0.000514466
0.000517251
0.000618217
0.00078447
0.00124788
0.00164468
0.00184329
0.00195314
0.00199654
0.00198718
0.00193841
0.00187098
0.00179575
0.00171801
0.00163754
0.00155215
0.0014593
0.00135655
0.00123727
0.00110656
0.00097984
0.000876282
0.000798432
0.000743871
0.000704863
0.000680363
0.000679031
0.000692932
0.000713804
0.00070283
0.000649314
0.000610973
0.000700794
0.000932134
0.0013906
0.00185513
0.00219333
0.00237576
0.00246309
0.00248214
0.00244436
0.00237403
0.002289
0.00219999
0.00210035
0.00199617
0.00187992
0.00174963
0.00159979
0.00143585
0.00127761
0.00114609
0.00104627
0.000975551
0.000924198
0.000889978
0.00087929
0.000884419
0.000893003
0.000856614
0.000769567
0.000693203
0.000767274
0.00105263
0.00147763
0.00198058
0.00239664
0.00269766
0.00283941
0.00289183
0.00287254
0.00280523
0.00271589
0.00261786
0.00250856
0.00238934
0.00225471
0.0021024
0.00192704
0.00173602
0.00155291
0.00139804
0.00127932
0.00119428
0.00113214
0.00108909
0.00106885
0.00106441
0.00106222
0.00100303
0.000885123
0.000772201
0.00082523
0.00116114
0.00150972
0.00205553
0.00253076
0.00290196
0.00314162
0.00322708
0.0032304
0.0031722
0.00308296
0.00297915
0.00286467
0.00273557
0.00258719
0.00241821
0.00222174
0.00200946
0.00180711
0.00163323
0.00149837
0.00140049
0.0013288
0.00127773
0.00124852
0.00123472
0.00122343
0.00114455
0.000999369
0.000850647
0.000878206
0.00124685
0.00148295
0.00208573
0.00261835
0.00304031
0.00334366
0.00349791
0.00352532
0.0034823
0.00339669
0.00329193
0.00317452
0.00303938
0.00288158
0.00270045
0.00248739
0.00225892
0.00204162
0.00185351
0.00170461
0.00159516
0.00151477
0.00145642
0.00141912
0.00139674
0.00137791
0.00128239
0.00111368
0.000932144
0.000927224
0.00130756
0.001411
0.00207425
0.00266564
0.00313599
0.00347856
0.00369762
0.00376355
0.00374128
0.00366278
0.00356031
0.00344217
0.00330515
0.00314181
0.00295249
0.00272718
0.00248702
0.00225853
0.00205995
0.00189914
0.00177934
0.00169075
0.00162582
0.0015815
0.00155159
0.00152667
0.00141729
0.00122851
0.00101797
0.000974324
0.00134349
0.00131071
0.00201105
0.00267466
0.00319477
0.00357541
0.00382539
0.00395491
0.00395316
0.00388747
0.00378994
0.00367288
0.00353703
0.00337163
0.00317744
0.00294398
0.00269614
0.00245971
0.00225349
0.00208302
0.00195401
0.00185755
0.00178675
0.00173644
0.00170023
0.00167056
0.00154984
0.00134401
0.00110779
0.00101867
0.00135901
0.00119828
0.00191413
0.00264317
0.0032193
0.00363877
0.00391995
0.00408074
0.00412208
0.00407488
0.00398491
0.00387219
0.00373905
0.00357462
0.00337804
0.00314039
0.00288835
0.00264679
0.00243474
0.00225743
0.00211994
0.00201618
0.00193994
0.00188463
0.00184346
0.00181031
0.00168053
0.00146024
0.00120149
0.00106715
0.00136071
0.00108606
0.00179735
0.00256743
0.00321028
0.00367155
0.00398481
0.00417236
0.00424944
0.00422778
0.00414972
0.0040437
0.00391377
0.00375366
0.00355706
0.00331873
0.00306547
0.00282115
0.00260491
0.00242271
0.00227779
0.00216743
0.00208606
0.00202669
0.00198197
0.00194636
0.00180973
0.00157734
0.00129887
0.00112418
0.00135669
0.000982342
0.00167239
0.00246131
0.00315779
0.00367485
0.0040233
0.00423813
0.00433843
0.00435103
0.00428817
0.00419028
0.00406627
0.00391124
0.00371725
0.00348104
0.00322904
0.00298394
0.00276494
0.00257912
0.00242815
0.00231181
0.00222582
0.00216309
0.0021163
0.00207908
0.00193777
0.0016954
0.00139958
0.00118789
0.00135677
0.000900352
0.0015481
0.00233661
0.00307315
0.0036467
0.00403798
0.00428104
0.00440592
0.00443969
0.00440214
0.00431509
0.00419875
0.00404948
0.00386083
0.00362896
0.00338028
0.00313604
0.0029155
0.00272673
0.00257153
0.00244973
0.00235969
0.00229418
0.00224659
0.00220882
0.00206485
0.00181444
0.00150346
0.00125374
0.00136829
0.000846615
0.00142843
0.00220213
0.00296518
0.00358677
0.00403004
0.00430485
0.00445496
0.00450856
0.00449572
0.00442138
0.00431333
0.00417127
0.00398857
0.00376367
0.00352001
0.00327802
0.00305699
0.00286599
0.00270773
0.00258126
0.00248788
0.00242011
0.00237285
0.00233562
0.00219103
0.00193445
0.00160742
0.00132527
0.00138984
0.00082182
0.00131358
0.00206397
0.00284187
0.00350371
0.00399736
0.00431191
0.00448783
0.00456199
0.00456593
0.00450986
0.00441141
0.0042778
0.00410234
0.00388597
0.00364861
0.00340998
0.00318943
0.00299695
0.00283644
0.00270614
0.00261026
0.00254066
0.00249472
0.00245907
0.00231595
0.00205528
0.00171441
0.00140801
0.00141872
0.00083474
0.00120828
0.0019268
0.00271048
0.00340489
0.00394358
0.0043039
0.00450571
0.00460115
0.00462158
0.00458196
0.0044945
0.0043696
0.00420317
0.00399582
0.00376566
0.00353139
0.00331239
0.00311906
0.00295678
0.00282376
0.00272611
0.00265509
0.00261127
0.00257805
0.00243863
0.00217613
0.00182347
0.00149923
0.00145406
0.000916612
0.00113227
0.00179455
0.00257734
0.00329697
0.00387456
0.0042808
0.00451039
0.004626
0.00466336
0.00463733
0.00456288
0.00444602
0.00429014
0.00409196
0.00386964
0.00364063
0.00342424
0.00323083
0.00306726
0.00293253
0.00283368
0.00276179
0.00272068
0.00269049
0.00255716
0.00229536
0.00193474
0.00159678
0.00149031
0.0010303
0.00110312
0.00167495
0.00244829
0.0031865
0.00379493
0.00424011
0.00450348
0.00463703
0.00468946
0.00467763
0.0046197
0.00450474
0.00436003
0.00417118
0.00395719
0.0037345
0.00352161
0.00332915
0.00316503
0.00302974
0.00292966
0.00285782
0.00281976
0.00279294
0.00266829
0.00241004
0.00204517
0.00169466
0.00154297
0.00117765
0.00112815
0.00158035
0.00232868
0.00307925
0.00370902
0.00418775
0.00448512
0.00463555
0.00470076
0.00470608
0.00465301
0.00454078
0.00440673
0.00422733
0.00402202
0.00380682
0.00359849
0.00340847
0.00324489
0.00310966
0.00300906
0.00293854
0.00290329
0.00287992
0.00276684
0.0025159
0.00215119
0.00179294
0.00160799
0.00134767
0.00122744
0.00152434
0.00222396
0.00297874
0.00362179
0.0041249
0.00445389
0.00462003
0.00468475
0.00469884
0.00465503
0.004547
0.00441884
0.00424977
0.00405359
0.00384691
0.00364477
0.00345958
0.00329674
0.00316339
0.00306378
0.00299642
0.00296288
0.00294299
0.00284501
0.00260618
0.00224748
0.00188434
0.00167875
0.00153138
0.00135227
0.00150717
0.00213964
0.00288676
0.00353453
0.00405281
0.00440177
0.00455055
0.00463015
0.00464895
0.00461031
0.00450737
0.00437888
0.00422171
0.00403488
0.00383863
0.00364503
0.00346453
0.00330641
0.00317742
0.00308107
0.00301731
0.00298591
0.00297078
0.00289104
0.00267119
0.00232685
0.00196581
0.00174881
0.00171611
0.00149342
0.00151115
0.0020785
0.00280262
0.00343791
0.00392749
0.00424905
0.00442978
0.00451782
0.00453455
0.00449352
0.00439544
0.00426424
0.00411806
0.00394312
0.00375927
0.00357432
0.00340266
0.00325375
0.00313205
0.00304121
0.00298293
0.00295705
0.00294904
0.00289008
0.00269899
0.00238015
0.00203022
0.00181084
0.00188081
0.00161991
0.00156674
0.00204047
0.00271159
0.00327033
0.0037073
0.00404081
0.00423588
0.0043138
0.00431826
0.0042721
0.00417958
0.00405309
0.00391231
0.00375591
0.00358524
0.0034143
0.00325651
0.00312016
0.00300994
0.00292928
0.0028807
0.0028645
0.00286666
0.00283156
0.00267882
0.00239815
0.00207262
0.00186352
0.00200563
0.00172622
0.00161188
0.00197803
0.0025375
0.00303681
0.00344888
0.00374207
0.00391183
0.00397708
0.00397323
0.00392873
0.00384846
0.00373992
0.00360982
0.00347763
0.00333026
0.00318315
0.00304708
0.00292935
0.00283489
0.00276716
0.00272886
0.00272075
0.00273246
0.00271813
0.00260851
0.00237474
0.00209092
0.00190661
0.00207804
0.00180172
0.00164761
0.00193842
0.00236296
0.00276793
0.00309105
0.00332626
0.0034644
0.00352184
0.00353077
0.00350826
0.00345658
0.00338152
0.00328359
0.00318367
0.00307491
0.00296088
0.00285308
0.00275747
0.0026794
0.0026228
0.00258957
0.00258043
0.00258853
0.00258406
0.00250933
0.00231777
0.00207883
0.00192696
0.00211603
0.00185665
0.00168146
0.00181771
0.00214417
0.00245055
0.00269773
0.0028899
0.00302396
0.00309628
0.00313403
0.00314602
0.00313211
0.00309881
0.00304513
0.00298334
0.002918
0.0028413
0.00276463
0.00269253
0.00263003
0.00258126
0.0025471
0.00252766
0.00251908
0.00250251
0.00243727
0.00226758
0.00205724
0.00191401
0.00219308
0.00197414
0.00178263
0.00180329
0.00204243
0.00228281
0.00248513
0.00265251
0.00278441
0.00286938
0.00292656
0.00296198
0.00297435
0.00296934
0.00294713
0.00291503
0.00287852
0.00283127
0.00277912
0.00272731
0.00267993
0.0026407
0.00261013
0.00258706
0.0025675
0.00253487
0.00246365
0.00230985
0.00211062
0.00193998
0.00236648
0.00222801
0.0021045
0.00209925
0.00224967
0.00241033
0.00254706
0.00266324
0.00275866
0.00282357
0.00286945
0.00289973
0.00291202
0.00290936
0.00288974
0.00286372
0.00283117
0.00279562
0.00276089
0.00272786
0.00269903
0.00267651
0.00266009
0.00264718
0.00263231
0.00260573
0.00255495
0.00245833
0.00231725
0.0021769
0.00260476
0.00254211
0.00249152
0.00248894
0.00253937
0.00259854
0.00265295
0.00270242
0.0027429
0.00276984
0.00279197
0.00280739
0.00281233
0.00280911
0.00278956
0.00276646
0.00274176
0.00271736
0.00269749
0.0026838
0.00267685
0.00267644
0.00268079
0.00268779
0.0026932
0.00269517
0.0026837
0.00265752
0.00260136
0.00254399
0.000188857
0.000205067
0.000208386
0.000208095
0.000205057
0.00019986
0.00019314
0.000185533
0.000177511
0.000169507
0.000161719
0.000154412
0.000147536
0.000141178
0.000134662
0.000127143
0.000118403
0.000108988
9.95132e-05
9.0129e-05
8.00405e-05
6.89738e-05
6.77353e-05
6.73149e-05
0.000322377
0.000313857
7.68388e-05
8.88252e-05
0.000104852
0.000114704
0.000770552
0.000985343
0.00106526
0.00107806
0.00105715
0.00101487
0.000963343
0.00090856
0.000853696
0.000799739
0.000745357
0.000690833
0.000631498
0.000565781
0.000492704
0.000426408
0.000377268
0.00035082
0.000340985
0.000339898
0.000331018
0.000317282
0.00037177
0.00041835
0.000410439
0.000361969
0.000348359
0.000450383
0.000593937
0.000690493
0.00125468
0.00165995
0.00188522
0.00198678
0.00200698
0.00196924
0.00189627
0.00180594
0.00170779
0.0016058
0.0014993
0.00138851
0.00126555
0.00112828
0.000978568
0.00084122
0.000737679
0.000678359
0.00065213
0.000643874
0.000623309
0.000602833
0.000672338
0.000756331
0.000696889
0.000596744
0.000565292
0.000680018
0.000894308
0.00112069
0.00158081
0.0021862
0.00251995
0.00271238
0.00279311
0.00278647
0.00271499
0.00260882
0.00248306
0.002346
0.00219907
0.00204066
0.00186157
0.0016601
0.00144359
0.00124548
0.00109412
0.00100295
0.000957454
0.000937771
0.000907838
0.000877874
0.000934883
0.00101823
0.000945712
0.000807956
0.000728169
0.000819292
0.00107736
0.00141426
0.00180841
0.00249521
0.00301092
0.00328731
0.00343153
0.00346619
0.00340991
0.00329909
0.00315622
0.00299476
0.00281923
0.00261895
0.00239136
0.0021388
0.00186651
0.00161958
0.00143039
0.0013114
0.00124808
0.00121745
0.0011804
0.00114404
0.00118315
0.00125138
0.00117187
0.00100306
0.000871666
0.000930292
0.0012179
0.00165193
0.00195132
0.00267878
0.0032935
0.00373996
0.00395073
0.00403135
0.00399946
0.00389033
0.00373749
0.00355941
0.00335917
0.00312712
0.00286246
0.00256763
0.00224972
0.00196461
0.0017461
0.00160339
0.00152394
0.00148317
0.00144128
0.0014011
0.00142218
0.00147186
0.00138586
0.00119253
0.00101257
0.00102953
0.00133176
0.00187386
0.00205489
0.00281462
0.00349104
0.00402479
0.00437476
0.00450082
0.00449923
0.00439697
0.00423996
0.00404927
0.0038293
0.0035754
0.00328101
0.0029526
0.00259872
0.00228469
0.00204377
0.00188097
0.0017869
0.00173649
0.00169068
0.00164848
0.00165384
0.00168566
0.00159228
0.00138007
0.00115802
0.00112512
0.00142774
0.00206472
0.00210717
0.00290671
0.00364373
0.00423982
0.00466764
0.00488886
0.00491922
0.0048321
0.00467416
0.00447416
0.00423945
0.00397073
0.00365432
0.00329937
0.00291886
0.00258388
0.00232583
0.00214674
0.00203888
0.00197911
0.00192943
0.00188622
0.00187913
0.0018952
0.0017938
0.00156681
0.00130953
0.00122288
0.00151041
0.0022191
0.00210832
0.00295496
0.00375587
0.00440949
0.0048873
0.00518663
0.00526772
0.00520403
0.00504797
0.00484373
0.00460032
0.00432044
0.00398878
0.00361307
0.00321491
0.00286585
0.00259477
0.00240274
0.00228169
0.00221248
0.00215887
0.00211484
0.00209864
0.00210135
0.00199157
0.00175282
0.00146611
0.00132668
0.00158378
0.00233724
0.00207078
0.00296108
0.00382709
0.00453901
0.00506602
0.0054005
0.00555997
0.00551815
0.00536922
0.00516509
0.00491636
0.00462901
0.00428894
0.00389924
0.00349129
0.00313385
0.0028531
0.0026505
0.00251676
0.0024379
0.00238012
0.00233528
0.00231282
0.00230419
0.00218604
0.00193781
0.00162654
0.00143783
0.00165172
0.00242265
0.00199537
0.00292888
0.00385897
0.00463031
0.00520341
0.00557739
0.00576676
0.00577666
0.00564519
0.00544371
0.00519356
0.0049011
0.00455942
0.00416272
0.00375185
0.00339065
0.00310289
0.00289123
0.00274532
0.00265648
0.00259416
0.00254831
0.00252199
0.00250326
0.00237706
0.00212124
0.0017896
0.00155505
0.00172029
0.00248034
0.00188722
0.00285884
0.00385427
0.00468712
0.00530614
0.00571766
0.00593467
0.00598919
0.00587998
0.00568451
0.00543793
0.0051466
0.00480377
0.00440759
0.00399979
0.00363845
0.00334566
0.00312586
0.00296829
0.00286909
0.00280162
0.00275442
0.00272629
0.0026976
0.00256389
0.00230227
0.00195426
0.00167739
0.00179536
0.00251943
0.00175772
0.00275554
0.00381313
0.00470986
0.00537848
0.00582323
0.00607154
0.00614676
0.00607557
0.00589253
0.00565327
0.00536624
0.005026
0.00463738
0.00423746
0.0038787
0.00358232
0.00335455
0.00318642
0.00307619
0.00300274
0.00295367
0.00292422
0.00288565
0.00274531
0.00247978
0.00211943
0.00180303
0.00188107
0.00255097
0.00162242
0.00262686
0.00373836
0.00469983
0.00542067
0.00590286
0.00617884
0.00627804
0.00624162
0.00607303
0.00584256
0.00556358
0.00523075
0.00485465
0.00446614
0.00411191
0.00381296
0.00357745
0.00339911
0.00327748
0.0031974
0.00314541
0.00311394
0.00306556
0.00291948
0.00265216
0.00228364
0.00193645
0.00196431
0.00258328
0.00150018
0.00248289
0.00363523
0.00465944
0.00543509
0.00595804
0.00625979
0.00638436
0.00636521
0.00622625
0.00600854
0.00574005
0.00542096
0.00506044
0.00468559
0.00433718
0.00403648
0.00379355
0.00360497
0.00347178
0.00338459
0.00332822
0.00329312
0.00323457
0.00308378
0.00281715
0.00244466
0.00207555
0.0020458
0.00262105
0.0014059
0.0023341
0.00351067
0.00459238
0.00542393
0.00598913
0.00631997
0.00646498
0.00646696
0.0063537
0.00615288
0.00589831
0.00559538
0.00525343
0.00489353
0.00455186
0.00425016
0.00400022
0.00380125
0.00365679
0.00356149
0.00349955
0.00345812
0.00338883
0.00323457
0.00297114
0.0025995
0.00221742
0.0021462
0.00266622
0.00135523
0.00219276
0.00337293
0.00450373
0.00538979
0.00599804
0.00636017
0.0065253
0.0065449
0.00645583
0.00628417
0.00603604
0.00574949
0.00542956
0.00508509
0.00475076
0.00444898
0.0041926
0.00398327
0.00382841
0.00372317
0.00365458
0.00360345
0.00352298
0.00336704
0.00310994
0.00274433
0.00235817
0.00225884
0.00272161
0.00135884
0.00207579
0.00323151
0.00439967
0.00533571
0.0059861
0.00637994
0.00656549
0.0066022
0.00654224
0.00639461
0.00615084
0.00587677
0.00558097
0.00525197
0.00492551
0.00462475
0.00436283
0.004144
0.00397813
0.00386252
0.00378464
0.00372129
0.00363013
0.00347514
0.00322829
0.00287395
0.00249355
0.0023732
0.00279149
0.00147444
0.00200456
0.00309792
0.00428708
0.00526486
0.0059538
0.00637687
0.00658341
0.00663292
0.00660415
0.00646471
0.00623351
0.00596928
0.00569358
0.00538171
0.00506367
0.00476528
0.00449939
0.00427074
0.00409488
0.0039683
0.00387806
0.00380159
0.00370192
0.00355175
0.00331996
0.00298115
0.0026195
0.00247474
0.0028849
0.00162877
0.00197117
0.00298255
0.00417266
0.0051798
0.00590058
0.00634958
0.00657422
0.00662444
0.00660069
0.00647992
0.00626936
0.00601394
0.00574837
0.00545758
0.00514849
0.00485451
0.00458382
0.00434809
0.00416343
0.00402474
0.00392141
0.00383326
0.00372965
0.00358949
0.00337851
0.00306055
0.00272563
0.00256858
0.00298009
0.00182898
0.00197251
0.00289458
0.00406204
0.00508148
0.00582375
0.0062771
0.00646033
0.00653555
0.00652735
0.0064221
0.00623224
0.00598966
0.0057279
0.00545749
0.00516015
0.004872
0.00459608
0.00435818
0.0041654
0.00401681
0.00390325
0.00380705
0.00370653
0.00358241
0.00339824
0.00310739
0.00280627
0.0026496
0.00306062
0.00202484
0.00206893
0.00284069
0.00395698
0.00495735
0.00565614
0.0060353
0.00624592
0.00635955
0.00636199
0.00626509
0.00609382
0.00587166
0.00561672
0.00535839
0.0050805
0.00479709
0.00452433
0.0042874
0.00409248
0.00393956
0.00382072
0.003723
0.00363196
0.00352908
0.00337651
0.00311737
0.00285608
0.0027119
0.00310329
0.00219408
0.00215629
0.00277202
0.0038244
0.004722
0.0053039
0.00568532
0.00595168
0.00606945
0.0060734
0.00598453
0.00583451
0.00563909
0.00540431
0.00515441
0.00490234
0.00463178
0.0043728
0.00414669
0.00395768
0.00380631
0.00368817
0.00359491
0.00351666
0.00343673
0.00331704
0.00309304
0.00287016
0.00275117
0.00310267
0.00232527
0.00224009
0.00268935
0.00356685
0.00431466
0.00486472
0.00528003
0.0055277
0.00564517
0.00564933
0.00557943
0.0054594
0.00529965
0.00510159
0.00487114
0.00464975
0.00441237
0.00417825
0.00397202
0.00379664
0.00365345
0.00354048
0.00345354
0.0033865
0.00332528
0.00323373
0.00304249
0.00284936
0.00275601
0.00306241
0.00241587
0.00230786
0.0026016
0.0032675
0.00388952
0.00439453
0.0047548
0.00499394
0.00510768
0.00513005
0.00509631
0.00502081
0.00490836
0.00475834
0.00456914
0.00438386
0.0041914
0.00399133
0.00381238
0.00365636
0.00352566
0.00342038
0.00333906
0.00327836
0.00322688
0.00315227
0.00298557
0.00280605
0.00272097
0.00298217
0.0024742
0.00233477
0.00246009
0.00296987
0.00345044
0.00386627
0.00419403
0.00442297
0.00455842
0.00461773
0.00463186
0.0046083
0.00454779
0.00444953
0.00431126
0.0041655
0.00401393
0.00384928
0.00369858
0.0035632
0.00344698
0.00335215
0.00327829
0.00322256
0.00317431
0.00310611
0.00295606
0.0027718
0.0026628
0.00283918
0.00255958
0.00238298
0.00236605
0.00268488