/*--------------------------------*- C++ -*----------------------------------*\
| =========                 |                                                 |
| \\      /  F ield         | OpenFOAM: The Open Source CFD Toolbox           |
|  \\    /   O peration     | Version:  5.0                                   |
|   \\  /    A nd           | Web:      www.OpenFOAM.org                      |
|    \\/     M anipulation  |                                                 |
\*---------------------------------------------------------------------------*/
FoamFile
{
    version     2.0;
    format      ascii;
    class       volScalarField;
    location    "200/air";
    object      alphat;
}
// * * * * * * * * * * * * * * * * * * * * * * * * * * * * * * * * * * * * * //

dimensions      [1 -1 -1 0 0 0 0];

internalField   nonuniform List<scalar> 
243000
(
0.000155109
0.000154589
0.000151426
0.000146788
0.000141088
0.000134663
0.00012778
0.000121048
0.000114797
0.000110213
0.000108256
0.000114865
0.000124447
0.000133675
0.000141952
0.00014919
0.00015448
0.000157973
0.000156657
0.000154415
0.000150749
0.00014727
0.000143509
0.000139907
0.00013694
0.000135199
0.000135272
0.000136832
0.000141097
0.000146789
0.000754936
0.00076648
0.000770745
0.000768248
0.000760856
0.000748738
0.000733138
0.00071739
0.000703882
0.000700878
0.000713166
0.00076782
0.000827129
0.000885717
0.000937481
0.000980368
0.00100896
0.00102478
0.00100863
0.000980698
0.00094216
0.000902183
0.000859416
0.000817961
0.000780016
0.000748772
0.000726078
0.000710259
0.000704476
0.000705718
0.00084294
0.000856408
0.000860826
0.000857684
0.000849371
0.000836275
0.000820043
0.000804232
0.000792034
0.000792348
0.000811627
0.000869138
0.000928545
0.000987595
0.00104044
0.00108412
0.00111329
0.00112957
0.00111415
0.00108502
0.00104535
0.00100354
0.000958934
0.000915647
0.000876055
0.000843368
0.000819384
0.000802937
0.000796556
0.000798657
0.00090522
0.000920905
0.000925957
0.000922862
0.000914294
0.000900925
0.000884735
0.000869315
0.000858639
0.000861765
0.000886537
0.000943893
0.00100192
0.00105979
0.00111216
0.00115539
0.00118405
0.00120008
0.00118581
0.00115661
0.00111704
0.00107479
0.00102977
0.000985971
0.000945859
0.000912606
0.000887927
0.000871161
0.000864308
0.000866779
0.000955986
0.000973458
0.000978944
0.000975829
0.000966992
0.000953405
0.000937356
0.000922419
0.000913231
0.000918722
0.000947712
0.00100354
0.00105951
0.00111565
0.00116692
0.00120941
0.00123733
0.00125302
0.00124023
0.00121167
0.00117281
0.00113082
0.00108604
0.00104236
0.00100227
0.000968888
0.000943872
0.000926908
0.000919668
0.000922222
0.00100183
0.00102062
0.0010261
0.00102265
0.00101326
0.000999228
0.000983139
0.000968578
0.000960654
0.000968129
0.00100017
0.00105388
0.00110757
0.00116183
0.00121191
0.00125374
0.00128101
0.00129652
0.00128547
0.00125807
0.00122032
0.00117899
0.00113481
0.00109152
0.00105167
0.00101835
0.000993165
0.000976166
0.000968812
0.000971383
0.00104639
0.00106601
0.00107096
0.00106675
0.00105638
0.00104155
0.00102513
0.00101074
0.00100376
0.00101286
0.00104686
0.00109824
0.00114965
0.00120217
0.00125116
0.00129252
0.00131936
0.00133494
0.00132585
0.0013
0.00126366
0.00122331
0.00117999
0.0011373
0.00109784
0.00106471
0.00103952
0.00102266
0.00101543
0.00101804
0.00109175
0.0011117
0.00111556
0.00111013
0.00109832
0.00108228
0.00106519
0.00105071
0.00104428
0.00105478
0.00108957
0.0011387
0.00118792
0.00123881
0.00128683
0.00132798
0.00135469
0.00137063
0.00136366
0.00133976
0.00130511
0.00126607
0.00122386
0.00118199
0.00114307
0.00111027
0.00108528
0.00106871
0.0010618
0.00106454
0.00113905
0.00115875
0.00116102
0.00115388
0.00114018
0.00112255
0.00110444
0.00108957
0.00108327
0.00109481
0.00112955
0.00117642
0.00122349
0.00127285
0.00132001
0.00136119
0.00138813
0.00140473
0.00140005
0.00137849
0.00134586
0.00130846
0.00126768
0.00122688
0.00118871
0.00115642
0.00113183
0.00111575
0.00110934
0.00111228
0.00118866
0.00120752
0.00120775
0.00119845
0.00118246
0.00116288
0.00114344
0.00112787
0.00112125
0.00113338
0.0011674
0.0012119
0.00125685
0.00130475
0.00135109
0.00139245
0.00141998
0.0014376
0.00143532
0.00141653
0.00138627
0.00135092
0.00131193
0.00127256
0.00123542
0.00120389
0.00117993
0.00116451
0.00115875
0.00116194
0.00124044
0.0012577
0.00125562
0.00124375
0.00122516
0.00120335
0.00118229
0.00116568
0.00115827
0.00117047
0.00120314
0.00124517
0.00128801
0.00133445
0.00137999
0.00142156
0.00144996
0.00146897
0.00146926
0.00145361
0.00142616
0.00139328
0.00135651
0.00131898
0.00128328
0.00125283
0.00122975
0.0012152
0.00121021
0.00121367
0.00129372
0.00130867
0.00130404
0.00128927
0.00126782
0.0012436
0.00122067
0.00120265
0.001194
0.00120566
0.00123649
0.00127592
0.00131667
0.00136162
0.0014063
0.00144799
0.00147745
0.00149817
0.00150119
0.00148905
0.00146482
0.00143489
0.00140081
0.00136563
0.00133184
0.00130287
0.00128098
0.00126747
0.00126335
0.00126707
0.00134748
0.00135944
0.00135203
0.00133415
0.00130971
0.00128295
0.00125792
0.00123809
0.00122778
0.00123829
0.00126688
0.00130365
0.00134229
0.00138567
0.00142941
0.00147107
0.00150165
0.00152427
0.00153014
0.00152179
0.00150125
0.00147471
0.00144381
0.00141152
0.00138016
0.00135315
0.0013328
0.00132054
0.00131733
0.00132127
0.00140031
0.00140873
0.00139837
0.00137732
0.00134985
0.00132048
0.00129307
0.00127102
0.00125871
0.00126757
0.00129361
0.00132768
0.00136416
0.00140591
0.00144858
0.00149011
0.00152179
0.00154632
0.00155501
0.00155062
0.00153413
0.00151144
0.00148417
0.00145531
0.00142695
0.00140238
0.00138397
0.00137317
0.0013709
0.00137497
0.00145052
0.00145501
0.00144165
0.00141749
0.0013871
0.00135498
0.00132497
0.0013004
0.00128581
0.00129259
0.00131587
0.00134727
0.00138152
0.00142157
0.00146305
0.00150438
0.00153708
0.00156357
0.0015749
0.00157438
0.00156209
0.0015436
0.00152039
0.00149545
0.00147061
0.00144896
0.00143288
0.00142377
0.00142248
0.00142656
0.00149621
0.00149668
0.00148041
0.00145332
0.0014201
0.00138522
0.00135246
0.00132512
0.00130806
0.00131245
0.00133291
0.00136164
0.00139366
0.00143193
0.0014721
0.00151314
0.00154675
0.00157517
0.00158903
0.00159216
0.00158408
0.00156981
0.00155091
0.00153029
0.00150944
0.00149118
0.00147774
0.00147051
0.00147025
0.00147422
0.00153546
0.00153231
0.00151322
0.00148343
0.00144753
0.00140996
0.00137441
0.00134421
0.00132484
0.00132676
0.00134447
0.00137052
0.00140033
0.00143667
0.00147527
0.00151578
0.00155014
0.00158023
0.00159666
0.00160315
0.00159918
0.00158908
0.00157455
0.00155835
0.00154175
0.0015272
0.00151677
0.00151161
0.00151231
0.00151605
0.00156669
0.00156029
0.00153868
0.0015065
0.00146809
0.00142796
0.00139002
0.00135812
0.00133903
0.0013395
0.00135453
0.00137752
0.00140473
0.0014382
0.00147418
0.00151239
0.00154709
0.00157848
0.00159715
0.00160671
0.00160655
0.00160049
0.00159029
0.00157848
0.00156622
0.00155556
0.00154824
0.00154524
0.00154686
0.00155027
0.00158854
0.00157934
0.00155548
0.00152115
0.00148102
0.00143965
0.00140247
0.00137094
0.00135186
0.00135073
0.00136321
0.00138343
0.00140821
0.00143891
0.00147256
0.00150864
0.0015413
0.0015709
0.00159038
0.00160261
0.00160564
0.00160327
0.00159728
0.00158974
0.00158174
0.00157497
0.0015708
0.00156996
0.00157238
0.00157536
0.00159996
0.00158822
0.00156301
0.00152767
0.00148967
0.00144975
0.00141317
0.00138207
0.0013628
0.00136004
0.00137009
0.00138781
0.00141034
0.00143837
0.00146994
0.00150395
0.0015348
0.00156294
0.00158228
0.00159462
0.00159862
0.0015978
0.00159524
0.0015917
0.00158759
0.0015844
0.0015833
0.00158446
0.00158758
0.00159005
0.00160063
0.00158747
0.00156457
0.00153239
0.00149615
0.00145773
0.00142175
0.00139107
0.00137144
0.00136709
0.00137485
0.00139042
0.00141049
0.00143643
0.00146597
0.00149794
0.00152717
0.00155406
0.0015731
0.00158555
0.00159049
0.00159144
0.00159075
0.00158901
0.00158664
0.00158477
0.00158511
0.00158792
0.00159154
0.00159346
0.00159462
0.00158379
0.00156341
0.00153412
0.00149973
0.00146289
0.00142763
0.00139729
0.00137738
0.00137166
0.00137734
0.00139063
0.00140887
0.00143273
0.00146032
0.00149033
0.00151806
0.00154381
0.00156239
0.0015749
0.00158066
0.0015832
0.00158414
0.00158408
0.0015834
0.00158287
0.001584
0.00158632
0.00158877
0.00158938
0.00158553
0.00157632
0.00155862
0.00153235
0.00150017
0.00146492
0.00143049
0.00140064
0.00138045
0.00137358
0.00137725
0.00138877
0.00140518
0.00142705
0.00145278
0.00148089
0.00150722
0.00153182
0.00154985
0.00156227
0.00156867
0.00157246
0.00157475
0.0015762
0.00157707
0.00157786
0.0015795
0.00158129
0.00158259
0.00158199
0.0015723
0.00156476
0.00154956
0.00152648
0.00149686
0.00146361
0.00143039
0.00140123
0.001381
0.00137276
0.00137478
0.00138454
0.00139923
0.00141923
0.00144312
0.00146941
0.00149441
0.00151781
0.00153517
0.00154734
0.00155414
0.00155875
0.00156208
0.00156479
0.00156698
0.00156892
0.00157083
0.00157198
0.00157201
0.00157029
0.00155413
0.00154841
0.001536
0.00151598
0.00148917
0.00145827
0.00142667
0.00139852
0.00137838
0.00136915
0.00136979
0.00137786
0.00139092
0.00140912
0.00143119
0.0014557
0.0014794
0.00150152
0.00151808
0.00152978
0.0015367
0.00154172
0.00154571
0.0015493
0.00155247
0.00155523
0.00155716
0.00155751
0.00155622
0.00155339
0.00152995
0.00152637
0.00151717
0.0015004
0.00147664
0.00144827
0.00141874
0.00139215
0.00137261
0.00136274
0.00136222
0.00136877
0.00138019
0.00139659
0.00141681
0.00143956
0.00146193
0.00148265
0.00149827
0.00150927
0.00151596
0.00152096
0.00152516
0.00152919
0.00153285
0.00153594
0.00153756
0.00153687
0.00153416
0.00153017
0.00149874
0.00149767
0.00149211
0.00147908
0.00145882
0.0014336
0.00140677
0.00138237
0.00136402
0.00135394
0.0013525
0.00135772
0.00136751
0.00138199
0.00140028
0.00142115
0.00144202
0.00146111
0.00147548
0.00148549
0.0014916
0.00149615
0.00150002
0.00150383
0.00150743
0.00151028
0.00151117
0.00150922
0.00150486
0.00149958
0.0014591
0.00146117
0.00146011
0.00145161
0.00143579
0.00141493
0.00139203
0.00137117
0.00135516
0.00134608
0.00134435
0.00134873
0.00135719
0.0013697
0.00138552
0.00140406
0.00142269
0.00143935
0.00145172
0.00146009
0.0014649
0.00146821
0.00147093
0.00147362
0.00147618
0.00147785
0.00147719
0.00147352
0.00146711
0.0014602
0.00142406
0.00143052
0.00143456
0.00143204
0.00142336
0.00141003
0.00139503
0.00138088
0.00137027
0.00136459
0.00136395
0.00136782
0.00137446
0.00138371
0.00139522
0.00140882
0.00142301
0.00143516
0.00144399
0.00144951
0.00145208
0.00145314
0.00145348
0.00145362
0.00145354
0.00145252
0.00144933
0.00144324
0.0014343
0.00142507
0.00151885
0.00152733
0.00153437
0.0015378
0.00153763
0.00153419
0.0015287
0.0015218
0.00151441
0.00150755
0.00150187
0.00149794
0.00149494
0.0014927
0.00149072
0.00149181
0.0014956
0.00150023
0.0015047
0.00150912
0.00151322
0.00151729
0.00152123
0.00152501
0.00152817
0.00153005
0.00153025
0.00152831
0.00152393
0.00151842
0.000211757
0.000210266
0.000204987
0.000197758
0.000189175
0.000179855
0.000170467
0.000162229
0.000156045
0.000154311
0.000156372
0.000162454
0.000170025
0.000179239
0.000188391
0.000196891
0.000203539
0.000208837
0.00020771
0.000205359
0.000201557
0.000197873
0.00019393
0.000190255
0.000187396
0.000186021
0.000186698
0.000189277
0.000194577
0.000202059
0.00131161
0.00130937
0.00125142
0.00116975
0.00108545
0.00100339
0.000933857
0.000885356
0.000863626
0.000876258
0.000895544
0.000932895
0.000976205
0.0010383
0.00110439
0.00116299
0.00120489
0.00124721
0.00125206
0.001234
0.00119995
0.00115826
0.00111123
0.00107098
0.00104149
0.00102789
0.00103029
0.00104567
0.0010687
0.0011098
0.00245336
0.00252266
0.00244832
0.00231024
0.00215912
0.00200793
0.00187836
0.00178787
0.00175448
0.00178699
0.00183271
0.00191167
0.00200086
0.00212457
0.002259
0.00236813
0.00244389
0.00252564
0.00254183
0.00250551
0.00243346
0.00234532
0.00224555
0.00215569
0.00208648
0.00204856
0.00204296
0.00206669
0.00210897
0.0021848
0.00346551
0.00359193
0.00351268
0.0033483
0.00316088
0.00296778
0.00279978
0.00268235
0.00264756
0.00270032
0.00277504
0.0028899
0.00301773
0.00319058
0.0033806
0.00352744
0.00362764
0.00373977
0.00376726
0.00371702
0.00361418
0.00348894
0.00334646
0.00321095
0.00310163
0.00303466
0.00301364
0.00304022
0.00309841
0.00319765
0.00435016
0.00449925
0.00441579
0.00424422
0.00404741
0.00384056
0.00366253
0.00353824
0.00351505
0.00358218
0.00367444
0.00381291
0.00396827
0.00417334
0.00439926
0.00457055
0.00468759
0.00481588
0.00485383
0.00479305
0.00467056
0.00452136
0.00435214
0.0041968
0.00406816
0.00398435
0.00395155
0.00396007
0.00400707
0.0041098
0.00511179
0.00525794
0.00517169
0.00500903
0.00481985
0.00461759
0.00444429
0.00432655
0.00431769
0.0043981
0.00450672
0.00466399
0.00483263
0.00504391
0.00528646
0.0054685
0.00559729
0.00572755
0.00577741
0.00572755
0.00559573
0.0054306
0.00524533
0.00506868
0.00491912
0.00481677
0.00476687
0.00476648
0.00481448
0.00490856
0.0057735
0.00590246
0.00581215
0.00566693
0.00549154
0.00530326
0.00514567
0.00504403
0.00504919
0.00513772
0.00525477
0.00541448
0.00558403
0.00579174
0.00603514
0.00621805
0.00635369
0.00647986
0.00653792
0.00649205
0.00636392
0.00619843
0.00601135
0.00582837
0.0056694
0.0055548
0.0054919
0.00548253
0.00552763
0.00560501
0.00635968
0.00646492
0.00636953
0.00624226
0.00607975
0.00590954
0.00577101
0.00568909
0.00570468
0.00579493
0.00591185
0.00606545
0.00622718
0.00642116
0.00665337
0.00683241
0.00696957
0.00709146
0.00715667
0.00712214
0.00700482
0.00684733
0.00666707
0.00648713
0.00632694
0.00620691
0.00613637
0.00611966
0.00615973
0.00621926
0.00689088
0.00696945
0.00687043
0.00675331
0.00660259
0.00644963
0.00632953
0.00626442
0.00628538
0.00637095
0.0064803
0.00662107
0.00676806
0.00694444
0.00715799
0.00733117
0.00746741
0.00758787
0.00765971
0.00764188
0.00754095
0.00739776
0.0072309
0.00706102
0.00690641
0.00678703
0.00671397
0.00669271
0.00672668
0.00677256
0.00738038
0.00742996
0.00732884
0.00721592
0.00707379
0.00693471
0.0068295
0.00677608
0.0067962
0.00687101
0.0069669
0.0070902
0.00721872
0.00737531
0.00756736
0.00773354
0.00786931
0.00799265
0.00807029
0.00807341
0.00799318
0.0078692
0.00772064
0.00756613
0.00742254
0.00730903
0.00723781
0.007215
0.00724361
0.00727967
0.00783389
0.00785045
0.00775287
0.00763791
0.00750084
0.00737175
0.00727666
0.00722922
0.0072421
0.00730097
0.0073791
0.00748192
0.00759012
0.00772608
0.00789618
0.0080545
0.00819087
0.00832039
0.00840662
0.00843192
0.00837596
0.00827485
0.00814845
0.0080136
0.00788559
0.00778227
0.00771645
0.00769483
0.00771968
0.00774835
0.00825065
0.00823362
0.00813977
0.00801997
0.00788536
0.00776271
0.00767293
0.00762565
0.00762584
0.00766417
0.00772207
0.0078025
0.00789032
0.00800537
0.0081542
0.00830319
0.00844118
0.00857871
0.00867739
0.00872456
0.00869601
0.00862068
0.00851946
0.00840785
0.00829917
0.00820976
0.00815241
0.00813416
0.00815659
0.00817943
0.00862488
0.0085771
0.00848186
0.00835781
0.00822425
0.00810509
0.00801587
0.0079627
0.00794718
0.00796196
0.0079981
0.00805602
0.00812341
0.00821817
0.00834587
0.00848435
0.00862464
0.00877029
0.00888419
0.0089507
0.0089532
0.00890626
0.00883272
0.00874725
0.008661
0.00858864
0.00854237
0.00852924
0.00855005
0.0085677
0.00894697
0.00887147
0.00877176
0.00864415
0.00851098
0.00839258
0.00829925
0.00823623
0.0082038
0.00819485
0.00820782
0.00824294
0.00829031
0.00836523
0.00847222
0.00860123
0.00874399
0.00889576
0.00902312
0.00910908
0.00914122
0.00912573
0.00908244
0.0090257
0.00896458
0.00891167
0.00887866
0.00887203
0.00889164
0.00890451
0.00920464
0.0091061
0.00900075
0.00886992
0.00873681
0.00861598
0.00851725
0.00844257
0.00839097
0.00836003
0.00834889
0.0083616
0.0083903
0.00844534
0.00853255
0.0086526
0.00879643
0.00895756
0.00909482
0.00919815
0.00925344
0.0092698
0.00925857
0.00923359
0.00920021
0.00916905
0.00915095
0.00915191
0.00917077
0.00917927
0.0093836
0.00927229
0.00915947
0.00902548
0.00889171
0.00876969
0.00866412
0.00857572
0.00850388
0.00845132
0.00841824
0.00840971
0.00842225
0.00845617
0.00852567
0.00863671
0.00878005
0.00895014
0.00909829
0.00921696
0.00929336
0.00933351
0.0093523
0.00935904
0.0093555
0.00934896
0.00934768
0.00935729
0.00937673
0.00937946
0.00947271
0.00936201
0.00923882
0.0091038
0.00897102
0.00884726
0.00873334
0.00862941
0.00853643
0.00846235
0.00841277
0.00838493
0.00838364
0.00839645
0.00845097
0.00855279
0.00869394
0.00886747
0.0090296
0.00916216
0.00925783
0.00932035
0.00936373
0.00939795
0.00942108
0.00943783
0.00945584
0.00947647
0.00949789
0.00949453
0.00947128
0.00936075
0.0092332
0.00910009
0.00896923
0.00884256
0.00871838
0.00859597
0.00847365
0.00837393
0.00830665
0.00826497
0.00825068
0.00824676
0.00829321
0.00839738
0.00853828
0.00871248
0.00888083
0.00902935
0.00914512
0.00922672
0.00929374
0.00934968
0.00939767
0.0094351
0.00946757
0.0094973
0.00952318
0.0095167
0.00938037
0.00926801
0.00913989
0.00901064
0.00888087
0.00874763
0.00859677
0.00844366
0.00829786
0.00817693
0.00809273
0.00804236
0.00800946
0.00798814
0.00802327
0.00812961
0.00829185
0.00849213
0.00867482
0.00883156
0.00895548
0.00905132
0.00914067
0.0092188
0.00928396
0.00933988
0.00938413
0.00942142
0.00945141
0.00944434
0.00920297
0.00908612
0.00896421
0.00883877
0.008692
0.00853686
0.00836642
0.00819052
0.00802648
0.00788586
0.00777974
0.00771949
0.00767015
0.00763489
0.0076578
0.00776084
0.00792612
0.00813309
0.00833061
0.00851044
0.00866195
0.00879846
0.00891069
0.00900886
0.00908566
0.00915416
0.00920564
0.009249
0.00928422
0.00928389
0.0089658
0.00884999
0.00871804
0.0085748
0.00841605
0.00824717
0.00806304
0.00786837
0.007668
0.00750006
0.00737984
0.00731536
0.0072523
0.00720532
0.00721717
0.0073138
0.00747579
0.00767731
0.00787623
0.00806472
0.00823005
0.00838454
0.008531
0.00866681
0.00878411
0.00887193
0.0089328
0.0089811
0.00901563
0.00903124
0.008586
0.00843765
0.00829986
0.00815913
0.00800766
0.0078363
0.00763937
0.0074229
0.00721302
0.00703922
0.00691375
0.00684309
0.00677286
0.00672168
0.00672562
0.00681556
0.00697019
0.00715797
0.00734628
0.00752998
0.00769277
0.00785292
0.00801712
0.008178
0.00832344
0.00843455
0.00850728
0.00857055
0.00862273
0.00866359
0.00803389
0.00788584
0.00776579
0.00763639
0.00748897
0.00731799
0.00711981
0.00690373
0.00669649
0.00652485
0.00639991
0.00632482
0.00625577
0.00620883
0.00621099
0.00629679
0.00644249
0.00661221
0.00678091
0.00694514
0.00709035
0.00724025
0.00740339
0.00757265
0.00773269
0.00786047
0.00794165
0.00801047
0.00806932
0.00812059
0.00735394
0.00722944
0.00713788
0.00703313
0.00689672
0.00673282
0.00654163
0.00633472
0.00613839
0.00597773
0.00586096
0.00578773
0.00572905
0.00569561
0.00570477
0.00579179
0.00592929
0.00608084
0.00622449
0.00635659
0.00647033
0.0065919
0.00673284
0.00689044
0.00704725
0.00717923
0.00726292
0.00733125
0.00738987
0.00744315
0.00659242
0.00650285
0.00644143
0.00636794
0.00625202
0.00610202
0.0059263
0.00573743
0.00556831
0.0054298
0.00532513
0.00526454
0.00522487
0.0052159
0.00524376
0.00533856
0.00547156
0.00560827
0.00572553
0.00581803
0.00588977
0.00596392
0.00605934
0.00618119
0.00631194
0.00642853
0.00650534
0.00656846
0.00662251
0.00667337
0.00578922
0.00573845
0.00569978
0.00566132
0.00557753
0.00545094
0.0053075
0.00516
0.00501718
0.00490864
0.00483166
0.00479786
0.00478845
0.00480861
0.00486752
0.00498559
0.00512927
0.0052634
0.00536002
0.00540776
0.00541807
0.00542472
0.00545326
0.00551406
0.00558819
0.00566114
0.00571602
0.00576423
0.00580682
0.00584998
0.00499725
0.00497571
0.00496486
0.00495269
0.00491604
0.00483312
0.00473084
0.00462894
0.00453772
0.00446853
0.00443115
0.00443462
0.00446782
0.00453652
0.00463854
0.0047794
0.00493465
0.00507143
0.00515606
0.00517932
0.00515111
0.00509517
0.00503297
0.00498431
0.00496956
0.00497124
0.00498222
0.00499537
0.00500668
0.0050286
0.00428571
0.00429933
0.00432224
0.00433971
0.00433823
0.00430851
0.00426283
0.00421649
0.00418254
0.00417567
0.00419304
0.00423787
0.00430555
0.00440361
0.00453127
0.00468582
0.00485471
0.00499427
0.0050779
0.00509518
0.00505456
0.0049729
0.00486776
0.0047545
0.00464722
0.00454673
0.00445894
0.00439252
0.00433875
0.00430654
0.00398376
0.00399044
0.00400545
0.00401839
0.00402605
0.00402664
0.00402595
0.00402738
0.00403741
0.00406286
0.0041049
0.00416975
0.00425761
0.00437696
0.00453056
0.00470662
0.00489407
0.00504765
0.00513957
0.00516352
0.00512333
0.00503497
0.0049139
0.00477388
0.00462787
0.00448391
0.00434885
0.00422907
0.00412421
0.00403145
0.00430611
0.00427364
0.00423967
0.00420745
0.00418349
0.00417053
0.00417137
0.00418448
0.00420999
0.00425054
0.00430952
0.00439453
0.00451131
0.0046703
0.00487284
0.00510285
0.00533666
0.00553113
0.0056556
0.00570531
0.00567904
0.00559504
0.00546651
0.00530915
0.00513798
0.00496577
0.0048019
0.00465213
0.00451443
0.00438123
0.000251212
0.000249198
0.000242756
0.00023403
0.000223908
0.000213179
0.000202844
0.000194319
0.000188501
0.000187823
0.000189932
0.000195295
0.000202094
0.000211203
0.00022059
0.000229458
0.000236748
0.000243147
0.000241412
0.00023851
0.00023451
0.00023121
0.000227794
0.000224659
0.000222265
0.000221291
0.000222303
0.000225378
0.000231018
0.000239462
0.00182967
0.00190027
0.00183306
0.00172635
0.00161463
0.00150675
0.001415
0.00135379
0.0013301
0.00135399
0.00138897
0.00144211
0.00150007
0.00159037
0.00168598
0.00176045
0.00179327
0.00182794
0.00183224
0.00181211
0.00177163
0.00170937
0.00164121
0.00158556
0.00154633
0.00152895
0.00153087
0.00155126
0.00157728
0.0016285
0.00352566
0.0036809
0.00359322
0.00341653
0.00322658
0.00304078
0.0028867
0.00278766
0.00276556
0.00282496
0.00290246
0.00300919
0.00312196
0.00328653
0.00346367
0.00357747
0.00362857
0.00370276
0.00372517
0.003691
0.00361233
0.00349319
0.00335766
0.00323767
0.00314605
0.00309686
0.00308851
0.00311844
0.00316902
0.00326056
0.00501128
0.0052038
0.00510868
0.00490042
0.00467741
0.00445516
0.00427444
0.00416261
0.00415476
0.00424464
0.004358
0.00450415
0.00465516
0.00486443
0.00509246
0.00522188
0.00528515
0.00539777
0.00544149
0.00540346
0.00529819
0.00514535
0.00496307
0.00479296
0.00465352
0.00456767
0.00453921
0.00456429
0.00463671
0.00475163
0.00630239
0.00648902
0.00636666
0.00615385
0.00592666
0.00570086
0.00552079
0.00541714
0.00542754
0.00553892
0.00567779
0.00584615
0.00601631
0.00624476
0.00648956
0.0066236
0.00669803
0.00683432
0.00690175
0.00686797
0.00674606
0.00657984
0.00637319
0.00617216
0.0060108
0.00591127
0.00587507
0.00588935
0.00593968
0.00604832
0.00736134
0.00751524
0.00738731
0.00719609
0.0069879
0.00677578
0.00661161
0.00652654
0.00655722
0.00668178
0.00683473
0.00701449
0.00719528
0.00740291
0.00763828
0.00776904
0.00785715
0.00799583
0.00808915
0.00808274
0.00797949
0.00780059
0.00757616
0.00735696
0.00717525
0.00705324
0.00699436
0.00699382
0.00704897
0.00714272
0.00825159
0.00837176
0.00824073
0.00807751
0.00788726
0.00769669
0.00755435
0.00748896
0.00753386
0.00766298
0.00781937
0.0079959
0.00816456
0.00834825
0.00855959
0.00868223
0.00878027
0.00891401
0.00903152
0.00904125
0.0089435
0.00877833
0.00856537
0.00834833
0.00816062
0.00802673
0.00795366
0.00794221
0.00799419
0.00806857
0.00902166
0.00910884
0.00897655
0.00883418
0.00865945
0.0084899
0.00836823
0.00831832
0.00836986
0.00849538
0.00864598
0.0088095
0.00895873
0.00911322
0.00929226
0.00940666
0.00950732
0.00963846
0.00977398
0.00980281
0.00972225
0.00957491
0.00938171
0.00917764
0.00899537
0.00886001
0.00878168
0.00876417
0.00881059
0.0088686
0.00970879
0.00976321
0.00963139
0.00949882
0.00933593
0.00918271
0.00907651
0.00903632
0.00908648
0.00920157
0.00933901
0.00948314
0.00960838
0.00973234
0.00988036
0.00998727
0.0100883
0.0102189
0.0103681
0.0104182
0.0103603
0.010235
0.0100667
0.00988281
0.00971421
0.00958555
0.00950929
0.00949074
0.00953239
0.00957953
0.0103353
0.0103549
0.0102265
0.0100953
0.00993914
0.00979653
0.00969983
0.00966372
0.0097055
0.00980474
0.00992391
0.0100449
0.0101448
0.0102397
0.0103628
0.0104637
0.0105655
0.0106978
0.0108569
0.0109292
0.0108957
0.0107954
0.0106545
0.0104953
0.0103458
0.0102296
0.0101607
0.0101452
0.0101848
0.0102248
0.0109096
0.010892
0.0107701
0.0106341
0.0104805
0.0103439
0.0102516
0.010215
0.0102427
0.0103224
0.01042
0.0105168
0.0105921
0.0106615
0.0107673
0.0108641
0.0109681
0.0111046
0.0112697
0.0113635
0.0113541
0.0112792
0.0111662
0.0110343
0.0109072
0.0108074
0.0107491
0.0107396
0.0107793
0.0108156
0.0114298
0.0113757
0.0112584
0.011115
0.0109613
0.0108278
0.0107362
0.0106958
0.0107059
0.0107639
0.0108391
0.0109122
0.0109656
0.0110143
0.0111089
0.0112042
0.0113127
0.0114556
0.0116227
0.011736
0.0117481
0.0116973
0.0116108
0.0115071
0.011404
0.0113226
0.0112772
0.0112753
0.0113157
0.0113522
0.0118864
0.0117999
0.0116812
0.011531
0.011376
0.0112441
0.0111508
0.011103
0.0110975
0.011132
0.0111856
0.0112371
0.0112719
0.0113062
0.0113926
0.0114903
0.0116056
0.0117559
0.0119237
0.0120518
0.0120808
0.0120499
0.0119884
0.0119115
0.0118328
0.0117708
0.0117393
0.0117461
0.0117874
0.011825
0.0122646
0.0121516
0.0120266
0.0118708
0.0117151
0.0115841
0.0114878
0.0114315
0.0114122
0.0114243
0.0114584
0.0114914
0.0115125
0.0115379
0.0116189
0.0117226
0.011847
0.0120051
0.0121733
0.0123104
0.01235
0.0123323
0.0122904
0.0122384
0.012184
0.0121416
0.0121245
0.0121404
0.0121846
0.0122198
0.0125441
0.0124169
0.0122816
0.0121215
0.0119667
0.0118365
0.0117373
0.011673
0.0116414
0.0116372
0.011654
0.0116723
0.0116848
0.0117064
0.0117846
0.0118973
0.0120334
0.0121992
0.0123681
0.0125082
0.0125516
0.0125388
0.012508
0.0124748
0.0124423
0.0124187
0.0124159
0.0124413
0.0124896
0.0125222
0.0127065
0.0125812
0.0124322
0.0122702
0.0121185
0.0119905
0.0118897
0.0118201
0.0117788
0.011761
0.011762
0.0117705
0.0117798
0.0118025
0.011882
0.0120076
0.0121595
0.0123329
0.0125024
0.0126398
0.0126805
0.0126643
0.0126344
0.0126116
0.0125942
0.0125863
0.0125961
0.0126306
0.0126841
0.012715
0.0127503
0.0126212
0.0124651
0.0123059
0.0121603
0.0120383
0.0119373
0.0118594
0.0118063
0.0117765
0.0117646
0.0117695
0.0117811
0.0118078
0.0118946
0.0120379
0.0122157
0.0124005
0.012571
0.0127002
0.0127323
0.0127057
0.012666
0.0126427
0.012631
0.0126327
0.0126508
0.012693
0.0127526
0.0127837
0.0126676
0.0125283
0.0123715
0.0122218
0.0120853
0.0119658
0.0118579
0.011767
0.0117046
0.011669
0.0116526
0.0116608
0.0116772
0.0117121
0.0118107
0.0119724
0.0121807
0.0123871
0.0125641
0.0126854
0.012705
0.0126631
0.0126052
0.0125677
0.0125499
0.0125518
0.0125715
0.0126174
0.0126831
0.0127193
0.0124611
0.0123092
0.0121547
0.0120071
0.0118694
0.0117473
0.0116325
0.011533
0.0114698
0.0114365
0.0114259
0.0114426
0.0114645
0.0115158
0.0116314
0.0118143
0.012049
0.0122798
0.0124604
0.0125714
0.0125795
0.012524
0.0124477
0.0123887
0.0123565
0.0123443
0.0123557
0.0123985
0.0124685
0.0125192
0.0121174
0.0119388
0.0117933
0.0116678
0.0115506
0.0114277
0.0113011
0.0111829
0.0111014
0.0110857
0.0110851
0.0111135
0.0111495
0.0112234
0.0113618
0.01157
0.011829
0.0120813
0.0122686
0.0123558
0.012345
0.0122675
0.0121636
0.0120838
0.0120291
0.0119971
0.0119985
0.012042
0.0121144
0.0121805
0.0115901
0.0113965
0.0112613
0.0111518
0.0110461
0.0109274
0.0107984
0.0106808
0.0106124
0.010624
0.0106366
0.0106815
0.0107427
0.010845
0.0110129
0.011252
0.0115361
0.0118084
0.0119999
0.0120591
0.0120224
0.0119163
0.0117769
0.0116562
0.011565
0.0115041
0.0114801
0.0115166
0.0115944
0.0116696
0.0108727
0.010694
0.0105746
0.0104893
0.0104037
0.0102962
0.0101735
0.0100673
0.0100292
0.0100629
0.0101019
0.0101714
0.0102615
0.0103982
0.0106036
0.0108806
0.0111927
0.0114856
0.0116759
0.0117084
0.0116387
0.0114924
0.0113081
0.0111356
0.0109961
0.0108947
0.0108317
0.010833
0.010895
0.0109715
0.0100173
0.00985927
0.00976011
0.00969832
0.00964216
0.00955457
0.00945703
0.00938533
0.00937969
0.00943478
0.00950713
0.00960697
0.00973183
0.00990925
0.0101614
0.010485
0.01083
0.0111448
0.011332
0.0113377
0.0112299
0.011035
0.0107971
0.0105649
0.010366
0.0102119
0.0100985
0.0100516
0.0100708
0.010119
0.009105
0.00897635
0.00889103
0.00884593
0.00882588
0.00877226
0.008711
0.00867604
0.00870321
0.0087815
0.00888777
0.00902378
0.00918863
0.00941371
0.00972306
0.0101034
0.0104882
0.0108277
0.0110147
0.0109951
0.0108459
0.0105994
0.0103004
0.0100009
0.00973419
0.00951414
0.00934305
0.00923703
0.00920176
0.00920676
0.00821789
0.00811658
0.00805378
0.00802951
0.00803233
0.00801325
0.00798827
0.00799096
0.00804952
0.00815402
0.00829114
0.00846482
0.00867561
0.00895508
0.00933429
0.00978343
0.0102176
0.0105871
0.0107813
0.0107404
0.0105528
0.010251
0.00988732
0.00951518
0.00916763
0.00887488
0.00863782
0.00846982
0.00836928
0.00832028
0.00743953
0.00736339
0.00732569
0.00731951
0.007329
0.00733817
0.00734745
0.00738594
0.00747283
0.00760451
0.00777193
0.0079829
0.00824376
0.00858933
0.00905243
0.00958559
0.0100812
0.0104907
0.0107059
0.0106524
0.0104316
0.0100743
0.00964055
0.00918921
0.00876153
0.00838516
0.00807195
0.00783431
0.00766665
0.00755203
0.00686806
0.00680382
0.0067765
0.0067763
0.00678798
0.00680877
0.00684837
0.00691965
0.00703498
0.00719573
0.00739529
0.00764755
0.00796724
0.00839119
0.00895491
0.00958651
0.0101555
0.0106173
0.0108732
0.0108263
0.0105906
0.0101902
0.0096867
0.00914572
0.00862337
0.0081528
0.00775205
0.00743197
0.00718806
0.00700084
0.00665278
0.0065733
0.00652837
0.00651082
0.00651334
0.00653587
0.00659637
0.00669438
0.00684075
0.00703753
0.00727696
0.00757635
0.00795868
0.00846729
0.00914091
0.00988589
0.0105394
0.0110682
0.0113895
0.0113807
0.0111641
0.0107527
0.0102073
0.00959444
0.00897584
0.0083932
0.00787714
0.00744758
0.00710146
0.00682058
0.00720964
0.00706346
0.00694769
0.00686548
0.00682098
0.00681771
0.00687585
0.0069849
0.00714606
0.0073574
0.00761783
0.0079522
0.00839151
0.00898688
0.00977345
0.0106384
0.0113821
0.0119938
0.0124051
0.0124849
0.0123434
0.0119784
0.0114501
0.0108224
0.0101537
0.0094893
0.0088709
0.00832417
0.00785311
0.00744774
0.0094036
0.00910945
0.00883743
0.00860433
0.00842543
0.00831035
0.00827973
0.00831806
0.00841938
0.00858188
0.00881072
0.00913795
0.00959738
0.0102549
0.0111223
0.012066
0.0128833
0.013584
0.0141032
0.0143462
0.0143581
0.0141482
0.0137598
0.0132442
0.0126488
0.012018
0.0113916
0.010798
0.010248