/*--------------------------------*- C++ -*----------------------------------*\
| =========                 |                                                 |
| \\      /  F ield         | OpenFOAM: The Open Source CFD Toolbox           |
|  \\    /   O peration     | Version:  5.0                                   |
|   \\  /    A nd           | Web:      www.OpenFOAM.org                      |
|    \\/     M anipulation  |                                                 |
\*---------------------------------------------------------------------------*/
FoamFile
{
    version     2.0;
    format      ascii;
    class       volScalarField;
    location    "200/air";
    object      epsilon;
}
// * * * * * * * * * * * * * * * * * * * * * * * * * * * * * * * * * * * * * //

dimensions      [0 2 -3 0 0 0 0];

internalField   nonuniform List<scalar> 
243000
(
2.63011
3.0333
3.31234
3.48815
3.55809
3.52813
3.41038
3.25366
3.08847
3.01874
3.14834
4.0583
5.35605
6.79715
8.21404
9.48405
10.3096
10.6428
9.85167
8.83132
7.60635
6.47552
5.40765
4.47534
3.71402
3.13743
2.73969
2.4577
2.32118
2.24334
1.91986
2.01178
2.04967
2.03258
1.97587
1.88346
1.76945
1.66113
1.57645
1.57027
1.68142
2.10132
2.60823
3.18196
3.75096
4.27101
4.63996
4.85092
4.60853
4.22572
3.74456
3.28642
2.84025
2.44923
2.1248
1.88049
1.71556
1.60659
1.5669
1.5746
2.67272
2.80727
2.85645
2.82889
2.74932
2.62492
2.47705
2.34133
2.24725
2.26976
2.47469
3.0341
3.67738
4.4004
5.11916
5.76948
6.22928
6.49362
6.20986
5.72323
5.11336
4.52139
3.9437
3.43368
3.00816
2.68484
2.46316
2.31846
2.26259
2.27921
3.31167
3.4929
3.55687
3.52521
3.42992
3.2826
3.11145
2.95776
2.86421
2.92023
3.2185
3.87321
4.60768
5.42729
6.24472
6.97834
7.49099
7.78513
7.48655
6.93392
6.24002
5.55448
4.88357
4.28655
3.78518
3.40077
3.1331
2.95955
2.88916
2.91203
3.90473
4.13018
4.20683
4.1706
4.06002
3.89218
3.70202
3.53537
3.44778
3.53926
3.92423
4.64369
5.43908
6.32412
7.20898
8.00198
8.54856
8.86269
8.56836
7.97631
7.22603
6.4724
5.73141
5.06692
4.50516
4.07069
3.76412
3.56526
3.48154
3.50824
4.50111
4.7677
4.85117
4.80576
4.6756
4.4847
4.27504
4.09664
4.01655
4.14444
4.60552
5.37002
6.20789
7.14034
8.07671
8.91847
9.49192
9.82468
9.54891
8.93675
8.14809
7.34229
6.54492
5.82351
5.20923
4.73047
4.38881
4.16795
4.07402
4.10388
5.14005
5.44404
5.52578
5.46345
5.30583
5.08575
4.85283
4.66129
4.58739
4.7524
5.27571
6.07382
6.94256
7.91301
8.89321
9.78143
10.3822
10.7369
10.4914
9.87456
9.0605
8.21394
7.36905
6.597
5.9343
5.4139
5.03979
4.79959
4.69854
4.7322
5.8539
6.19042
6.25981
6.16999
5.97423
5.71619
5.45387
5.24571
5.17452
5.37604
5.94782
6.77136
7.6632
8.66582
9.68629
10.6232
11.2564
11.6404
11.4359
10.8292
10.0013
9.12385
8.23824
7.42026
6.71145
6.15106
5.74655
5.48924
5.38424
5.42319
6.66927
7.03133
7.0759
6.94566
6.69903
6.39233
6.09274
5.86272
5.78862
6.0234
6.63105
7.47208
8.38042
9.41119
10.4699
11.4588
12.1328
12.5559
12.4034
11.8226
10.9936
10.0961
9.17765
8.31889
7.56665
6.96778
6.53487
6.26286
6.15708
6.20347
7.60603
7.98313
7.98891
7.80368
7.49211
7.12493
6.77901
6.52008
6.43546
6.69707
7.32776
8.17767
9.09668
10.1515
11.2463
12.2891
13.013
13.4872
13.3972
12.8609
12.0464
11.1425
10.2019
9.30996
8.51915
7.88493
7.42632
7.14253
7.03941
7.09515
8.67611
9.05154
9.00597
8.74875
8.35748
7.91783
7.51555
7.2189
7.11417
7.39297
8.03304
8.8827
9.80589
10.8797
12.0071
13.1025
13.8842
14.4223
14.4068
13.9348
13.1539
12.2608
11.313
10.3999
9.57949
8.9159
8.43597
8.14443
8.04781
8.11458
9.88093
10.2336
10.1225
9.77609
9.29022
8.76632
8.29718
7.95218
7.81628
8.09919
8.73473
9.57384
10.4946
11.5803
12.7339
13.8769
14.7214
15.335
15.4063
15.0198
14.2948
13.4338
12.4984
11.5818
10.7457
10.0632
9.56943
9.27558
9.18963
9.269
11.2077
11.5132
11.3209
10.8696
10.2755
9.65643
9.10939
8.70349
8.52464
8.7961
9.41295
10.2314
11.1414
12.2303
13.401
14.5832
15.4914
16.1879
16.3565
16.0761
15.4321
14.628
13.729
12.8323
12.0007
11.3148
10.8185
10.5299
10.4588
10.5515
12.6255
12.8574
12.5691
12
11.2876
10.5637
9.92658
9.44652
9.21364
9.45767
10.042
10.8297
11.7195
12.8009
13.9773
15.1901
16.1586
16.9384
17.2095
17.0516
16.5135
15.7939
14.9587
14.1096
13.3086
12.6401
12.1571
11.8837
11.8321
11.9378
14.0827
14.2155
13.8197
13.1254
12.289
11.4507
10.7131
10.148
9.85097
10.0524
10.5914
11.3391
12.1978
13.2606
14.4301
15.6635
16.6852
17.5481
17.9188
17.8907
17.477
16.8677
16.1259
15.3554
14.6148
13.9895
13.5391
13.2932
13.2662
13.3825
15.5067
15.522
15.0134
14.1916
13.2283
12.2719
11.4275
10.7688
10.4002
10.5458
11.0296
11.7288
12.5465
13.5785
14.7274
15.9694
17.0347
17.9762
18.4433
18.5442
18.2663
17.7831
17.1589
16.4973
15.8484
15.2953
14.8994
14.6946
14.6967
14.8199
16.8088
16.7059
16.0807
15.1356
14.0494
12.9767
12.0244
11.2693
10.8307
10.9136
11.3367
11.9783
12.7465
13.7342
14.8448
16.0797
17.1756
18.1801
18.7449
18.9672
18.8303
18.4834
17.9937
17.4609
16.9288
16.4746
16.1571
16.0089
16.0423
16.1673
17.9003
17.6817
16.9479
15.8925
14.693
13.512
12.4658
11.6344
11.1841
11.2243
11.5862
12.1573
12.8621
13.774
14.8096
15.9915
17.0959
18.1464
18.7888
19.1242
19.1233
18.9169
18.5721
18.1806
17.7834
17.4472
17.224
17.1435
17.2107
17.333
18.6977
18.3736
17.5451
16.393
15.1114
13.8584
12.81
11.9776
11.5109
11.5025
11.8038
12.3089
12.9533
13.7903
14.759
15.864
16.8962
17.883
18.5711
18.9992
19.1128
19.0415
18.8452
18.6007
18.3466
18.1392
18.0217
18.0149
18.1142
18.2277
19.1336
18.7142
17.8251
16.6271
15.3806
14.1614
13.1112
12.2787
11.7941
11.7357
11.9762
12.4205
13.0062
13.7716
14.678
15.7081
16.676
17.6095
18.2762
18.7036
18.8522
18.8525
18.791
18.6887
18.5712
18.4896
18.4815
18.5459
18.6741
18.774
19.1751
18.7067
17.8709
16.7752
15.5836
14.4016
13.3557
12.523
12.0182
11.9115
12.0934
12.4828
13.0051
13.7114
14.5548
15.5126
16.4215
17.3057
17.9483
18.3753
18.5568
18.6202
18.6183
18.5795
18.5247
18.494
18.5603
18.6852
18.8332
18.9162
18.9339
18.5522
17.8211
16.8255
15.6942
14.5556
13.5225
12.6901
12.1703
12.022
12.1495
12.4814
12.9543
13.5999
14.3814
15.2696
16.123
16.9578
17.5741
17.9975
18.2061
18.3191
18.3713
18.392
18.3973
18.419
18.5032
18.6086
18.7137
18.7483
18.5867
18.2691
17.6449
16.758
15.7043
14.6136
13.6017
12.777
12.245
12.0613
12.1382
12.4225
12.845
13.432
14.1525
14.9738
15.774
16.5578
17.1447
17.5592
17.7861
17.9338
18.0298
18.1022
18.1618
18.2316
18.3275
18.4121
18.4749
18.4653
18.0998
17.8465
17.3232
16.5532
15.5926
14.567
13.5931
12.7862
12.2493
12.0264
12.0619
12.2995
12.674
13.2046
13.8647
14.6215
15.3697
16.1001
16.6542
17.0527
17.287
17.4543
17.5814
17.6938
17.7975
17.9052
18.0058
18.0664
18.0841
18.035
17.4512
17.2665
16.8526
16.197
15.3411
14.3964
13.4767
12.6998
12.1646
11.9164
11.9177
12.1117
12.4401
12.9159
13.516
14.2098
14.9058
15.5805
16.0978
16.4725
16.703
16.8752
17.018
17.1548
17.2879
17.418
17.5149
17.5467
17.5178
17.4319
16.6176
16.5091
16.2151
15.6816
14.94
14.0873
13.2391
12.512
11.9964
11.7332
11.7066
11.8616
12.1443
12.5656
13.1051
13.7363
14.379
14.9949
15.4708
15.814
16.0289
16.1917
16.3338
16.4774
16.6205
16.7524
16.8335
16.8292
16.753
16.6307
15.5868
15.5619
15.3948
14.9966
14.3835
13.6437
12.8898
12.2319
11.7522
11.4874
11.4398
11.5615
11.7997
12.1657
12.6435
13.2099
13.7942
14.345
14.7708
15.0741
15.263
15.4038
15.5279
15.6567
15.7871
15.9003
15.9514
15.9055
15.7785
15.6189
14.3441
14.4119
14.388
14.1417
13.6806
13.0876
12.46
11.908
11.4952
11.26
11.2089
11.3105
11.515
11.8279
12.2359
12.7296
13.2404
13.7081
14.0641
14.3093
14.4517
14.5492
14.6315
14.7184
14.8071
14.8736
14.8712
14.7716
14.5865
14.384
13.2919
13.4762
13.5936
13.5216
13.2719
12.8947
12.482
12.1024
11.8235
11.672
11.6501
11.7445
11.9122
12.1533
12.461
12.8346
13.2285
13.5744
13.8287
13.9891
14.063
14.0921
14.1013
14.1077
14.1106
14.0905
14.0098
13.8403
13.5885
13.3288
15.9841
16.2457
16.4596
16.5538
16.531
16.4019
16.2106
15.9829
15.7476
15.5335
15.3594
15.2431
15.1598
15.106
15.0678
15.1309
15.2662
15.4213
15.5686
15.7104
15.8394
15.9644
16.0823
16.1937
16.289
16.348
16.3545
16.2882
16.1474
15.9737
6.73762
7.68065
8.26801
8.57951
8.62391
8.45087
8.14548
7.88787
7.83037
8.35732
9.45794
11.3081
13.5802
16.3593
19.2071
21.8271
23.6151
24.6066
22.9896
20.833
18.2196
15.7347
13.3622
11.2624
9.51874
8.17061
7.2045
6.51285
6.10604
5.87726
4.0798
4.42691
4.76379
4.99908
5.12085
5.15286
5.13139
5.12781
5.22432
5.60349
6.25852
7.1931
8.28266
9.51832
10.7408
11.8155
12.5662
12.9114
12.1639
11.1972
10.0611
8.95309
7.88206
6.88583
6.01399
5.298
4.76038
4.36042
4.14394
4.01753
3.61331
3.80187
4.05455
4.24611
4.36952
4.44084
4.48743
4.54982
4.69101
5.02958
5.53433
6.20135
6.95636
7.77573
8.56503
9.25362
9.73574
9.9113
9.41449
8.75646
7.99948
7.24606
6.51317
5.81861
5.19253
4.65888
4.24323
3.92242
3.74039
3.63573
3.5224
3.68475
3.90241
4.05707
4.1573
4.22344
4.28299
4.36284
4.52073
4.82984
5.24573
5.77853
6.37041
7.00081
7.60575
8.13332
8.49922
8.61214
8.25039
7.74088
7.15181
6.55242
5.96473
5.40795
4.89728
4.45197
4.09379
3.80744
3.63174
3.53954
3.62361
3.81056
4.0098
4.1327
4.19817
4.23738
4.27851
4.35018
4.5052
4.79229
5.16244
5.6214
6.12161
6.65718
7.18154
7.63927
7.95123
8.0502
7.77637
7.35763
6.85448
6.32975
5.80685
5.29613
4.82544
4.41508
4.083
3.83397
3.68226
3.60994
3.88918
4.11937
4.30394
4.39131
4.41479
4.41642
4.4301
4.48417
4.63289
4.89865
5.2333
5.6423
6.09418
6.59934
7.09851
7.53883
7.83057
7.94244
7.72932
7.35029
6.89597
6.4129
5.91965
5.43553
4.98438
4.58898
4.26952
4.03176
3.88489
3.83358
4.30881
4.58759
4.75754
4.80453
4.78216
4.73988
4.71806
4.74818
4.88695
5.13534
5.44692
5.83434
6.26592
6.76768
7.27415
7.72936
8.02272
8.15907
7.9993
7.66233
7.2318
6.76318
6.27439
5.78912
5.33327
4.93436
4.61356
4.37886
4.23677
4.20781
4.87964
5.20466
5.35651
5.36001
5.29017
5.19901
5.13817
5.14092
5.26658
5.50028
5.79766
6.17514
6.59972
7.1165
7.64964
8.14405
8.45944
8.62718
8.51632
8.21288
7.79851
7.33538
6.84084
6.34183
5.86754
5.45189
5.11893
4.88022
4.74177
4.73344
5.5982
5.9608
6.08733
6.04935
5.92957
5.7877
5.6859
5.66111
5.76888
5.98836
6.27312
6.6441
7.06776
7.60628
8.17582
8.72573
9.08098
9.28839
9.22666
8.95666
8.55841
8.09963
7.59799
7.08111
6.58159
6.14076
5.78769
5.53877
5.40182
5.40917
6.45632
6.84295
6.9369
6.85787
6.68803
6.49635
6.35366
6.30089
6.3845
6.58559
6.85312
7.21643
7.64046
8.20162
8.8082
9.41593
9.82715
10.0858
10.0772
9.84731
9.47194
9.023
8.51912
7.9879
7.46357
6.99469
6.61668
6.35224
6.21296
6.23021
7.44005
7.8332
7.88756
7.76704
7.54833
7.3097
7.12698
7.04382
7.09445
7.26817
7.51183
7.86216
8.28466
8.86394
9.50194
10.1575
10.6293
10.959
11.0116
10.8349
10.4947
10.0663
9.5704
9.03476
8.49314
7.99904
7.59495
7.3112
7.16445
7.18594
8.52811
8.9075
8.91683
8.75401
8.48814
8.20594
7.98292
7.86288
7.8687
8.0002
8.2159
8.54473
8.96669
9.5544
10.2169
10.8953
11.4218
11.8302
11.9661
11.8637
11.5776
11.1851
10.7113
10.1857
9.63952
9.12887
8.70205
8.39723
8.23728
8.25711
9.69065
10.033
9.99732
9.79021
9.47982
9.15666
8.88809
8.71645
8.66795
8.74575
8.92967
9.23595
9.65136
10.2409
10.9123
11.5896
12.1498
12.6303
12.8574
12.8605
12.662
12.3293
11.8963
11.3986
10.8631
10.3488
9.90694
9.58208
9.4033
9.41451
10.8897
11.1733
11.0926
10.8412
10.4901
10.1229
9.79376
9.56296
9.4606
9.48513
9.62913
9.90507
10.3048
10.8879
11.5546
12.2304
12.8129
13.3175
13.6264
13.7372
13.658
13.4305
13.0709
12.6258
12.1201
11.6158
11.1693
10.8278
10.6263
10.6201
12.0808
12.2884
12.1626
11.8673
11.4768
11.0473
10.6654
10.3805
10.2206
10.1894
10.2859
10.5254
10.9029
11.472
12.1235
12.7941
13.393
13.9177
14.2751
14.4579
14.4935
14.3966
14.1499
13.8033
13.3578
12.8831
12.4426
12.0888
11.8634
11.828
13.2152
13.3376
13.1658
12.8204
12.3808
11.9105
11.48
11.1407
10.9222
10.8373
10.8839
11.0845
11.4376
11.9873
12.6181
13.2767
13.8817
14.4211
14.8197
15.0711
15.1921
15.1941
15.0579
14.8346
14.4935
14.0901
13.677
13.3173
13.0658
12.9903
14.2437
14.2848
14.0522
13.6695
13.195
12.6902
12.217
11.8274
11.5564
11.4251
11.4286
11.594
11.9267
12.4572
13.067
13.7031
14.2982
14.8389
15.2661
15.5757
15.7729
15.8636
15.8359
15.7064
15.4557
15.1321
14.7929
14.46
14.1859
14.0588
15.1165
15.0684
14.8066
14.4018
13.9068
13.378
12.8753
12.4483
12.1339
11.9632
11.9362
12.077
12.3996
12.921
13.5194
14.133
14.6998
15.215
15.6498
15.9967
16.2518
16.4178
16.4813
16.4444
16.2832
16.0335
15.7375
15.4246
15.1517
14.9881
15.8219
15.7146
15.4346
15.0234
14.5272
13.9933
13.4723
13.0152
12.6681
12.4708
12.4284
12.5622
12.8899
13.417
14.0194
14.6165
15.1479
15.6226
16.0451
16.396
16.6772
16.8916
17.0235
17.0606
16.982
16.7993
16.5435
16.2468
15.9659
15.758
16.3846
16.2442
15.967
15.5729
15.0926
14.5631
14.0333
13.5573
13.1912
12.9834
12.943
13.0917
13.4408
13.9877
14.6084
15.1963
15.6924
16.1259
16.5223
16.851
17.125
17.353
17.522
17.6055
17.5871
17.457
17.2319
16.9419
16.6412
16.3809
16.8625
16.7176
16.4677
16.1068
15.65
15.1322
14.6031
14.1209
13.7514
13.5518
13.5333
13.7187
14.1033
14.6788
15.3272
15.9095
16.3712
16.7691
17.1329
17.4255
17.6684
17.8792
18.0503
18.1519
18.1634
18.0677
17.8593
17.5607
17.2243
16.9048
17.3414
17.2134
17.0051
16.6865
16.2608
15.7624
15.2438
14.7691
14.4152
14.2444
14.2674
14.5071
14.936
15.5371
16.2128
16.785
17.212
17.5779
17.9068
18.1593
18.3588
18.5318
18.6779
18.7709
18.7868
18.7039
18.4975
18.1776
17.7943
17.4116
17.902
17.8062
17.6554
17.3911
17.0058
16.5367
16.0407
15.5907
15.273
15.1486
15.2304
15.5306
16.0014
16.6123
17.2947
17.838
18.2253
18.5573
18.8491
19.0652
19.2226
19.3518
19.4605
19.5282
19.5312
19.4406
19.2193
18.8651
18.427
17.9826
18.6137
18.5695
18.4974
18.3058
17.977
17.5524
17.0987
16.6968
16.4372
16.3744
16.5242
16.8764
17.3665
17.948
18.5875
19.0615
19.396
19.6839
19.9358
20.1227
20.2487
20.3449
20.4239
20.4682
20.4539
20.3413
20.0896
19.6901
19.1901
18.6873
19.5285
19.5696
19.6144
19.524
19.2824
18.9312
18.55
18.2265
18.0465
18.054
18.263
18.6349
19.0909
19.5709
20.0733
20.3987
20.6421
20.8633
21.0687
21.2441
21.3697
21.4684
21.5421
21.5789
21.5579
21.4262
21.1407
20.6931
20.1318
19.5814
20.6151
20.8201
21.0611
21.1409
21.0458
20.8228
20.5609
20.3501
20.257
20.3277
20.5474
20.8545
21.1473
21.3725
21.5426
21.5689
21.6382
21.7409
21.8886
22.0947
22.3139
22.5182
22.6828
22.7839
22.7876
22.6466
22.3279
21.8303
21.2146
20.6363
21.9558
22.4487
22.9892
23.3535
23.5014
23.4779
23.3802
23.272
23.1841
23.1329
23.1133
23.0822
22.9261
22.6222
22.2396
21.9203
21.8149
21.7833
21.8616
22.0815
22.3963
22.7839
23.217
23.6226
23.8677
23.8938
23.6611
23.1596
22.5098
21.9233
23.0543
23.9457
24.9078
25.6545
26.0892
26.2161
26.064
25.7011
25.1751
24.524
23.8868
23.3078
22.6892
21.987
21.2015
20.6533
20.413
20.2758
20.286
20.4749
20.8025
21.2556
21.8081
22.4145
23.0115
23.4678
23.6573
23.5095
23.1437
22.8379
20.1425
21.1413
22.2448
23.1682
23.7484
23.8958
23.5919
22.965
22.1813
21.391
20.6482
19.9722
19.2785
18.5306
17.7105
17.1663
16.905
16.7569
16.7164
16.8207
17.0331
17.3536
17.7708
18.2645
18.7903
19.2686
19.6051
19.7543
19.7585
19.8331
14.0442
14.6046
15.2237
15.7587
16.1138
16.2246
16.0774
15.733
15.2799
14.7997
14.3373
13.9122
13.48
13.032
12.5508
12.2717
12.1608
12.1165
12.1156
12.1678
12.2538
12.3799
12.5503
12.7625
13.0047
13.2474
13.4568
13.6081
13.7058
13.8446
11.3104
12.8329
13.7757
14.2598
14.3391
14.1133
13.7643
13.5942
13.8304
15.0548
16.8724
19.5545
22.7234
26.6986
30.7814
34.5701
37.1721
38.8115
36.1242
32.7225
28.7544
25.1444
21.6854
18.5635
15.899
13.7736
12.1879
11.0278
10.2573
9.82289
5.7022
6.23112
6.72963
7.06679
7.22952
7.26484
7.24153
7.26173
7.42937
7.93673
8.68478
9.7233
10.9407
12.3395
13.7651
15.0498
15.9986
16.4525
15.3686
14.1158
12.7482
11.4982
10.3084
9.17279
8.14461
7.26461
6.57289
6.03918
5.72704
5.5507
4.73435
5.06978
5.42175
5.66715
5.79757
5.84491
5.85654
5.89734
6.04343
6.3968
6.91566
7.60674
8.40967
9.30911
10.2217
11.0599
11.6554
11.8236
11.1176
10.293
9.42092
8.61225
7.85161
7.12695
6.46161
5.87613
5.40068
5.02352
4.79468
4.67645
4.50496
4.8001
5.08463
5.26839
5.35329
5.37773
5.38264
5.41894
5.55493
5.84692
6.26661
6.80917
7.43678
8.13522
8.84594
9.50056
9.93574
9.9906
9.46349
8.82524
8.15873
7.52567
6.93375
6.37449
5.86296
5.40964
5.03327
4.73208
4.53194
4.44325
4.58513
4.89096
5.15074
5.2849
5.32512
5.31463
5.29846
5.3203
5.44875
5.7089
6.07317
6.53683
7.07461
7.67459
8.3
8.86238
9.20884
9.22224
8.79688
8.2652
7.71268
7.16879
6.65684
6.17482
5.72398
5.32015
4.98423
4.72702
4.57391
4.51707
4.92575
5.26188
5.48971
5.57143
5.56134
5.51307
5.47108
5.47639
5.59448
5.83349
6.16245
6.57634
7.05786
7.63051
8.22519
8.74686
9.04003
9.05195
8.68935
8.20878
7.70454
7.22879
6.76962
6.32913
5.91327
5.54127
5.23356
5.00084
4.85799
4.8249
5.4719
5.83598
6.0321
6.06282
6.00837
5.92068
5.85094
5.84028
5.94758
6.16951
6.47365
6.85898
7.3188
7.88186
8.47483
8.98574
9.2528
9.27561
8.95814
8.52641
8.07199
7.62999
7.19275
6.76852
6.36514
6.00357
5.70506
5.48232
5.34733
5.33391
6.19895
6.58407
6.74623
6.73207
6.63636
6.5104
6.4131
6.3869
6.48076
6.68566
6.96998
7.33753
7.78958
8.35898
8.96757
9.48344
9.74497
9.7808
9.50299
9.1111
8.69295
8.28138
7.86378
7.44827
7.04616
6.68224
6.3802
6.15676
6.02499
6.02482
7.08377
7.47917
7.60498
7.55411
7.42086
7.26022
7.13686
7.0946
7.17026
7.35528
7.6209
7.97651
8.42947
9.01243
9.64323
10.1715
10.437
10.4876
10.2472
9.8914
9.50754
9.12782
8.73488
8.32895
7.92606
7.55402
7.24055
7.00805
6.87306
6.87865
8.09865
8.4908
8.57924
8.49817
8.33396
8.14445
7.99716
7.93686
7.98804
8.14798
8.39265
8.73738
9.19601
9.79512
10.4484
10.9884
11.2602
11.3258
11.1219
10.8017
10.4562
10.1141
9.75562
9.36709
8.969
8.5899
8.26168
8.01383
7.86789
7.87218
9.21132
9.58404
9.63404
9.52776
9.34037
9.13001
8.96096
8.87846
8.89683
9.0224
9.24127
9.57521
10.0415
10.6561
11.3329
11.8764
12.1525
12.2321
12.0633
11.7785
11.4778
11.1826
10.8692
10.5132
10.1317
9.7524
9.41064
9.14382
8.97949
8.97562
10.3849
10.7209
10.7318
10.602
10.3961
10.1737
9.98252
9.86968
9.84879
9.93205
10.1224
10.4456
10.9205
11.5478
12.2434
12.7824
13.0609
13.152
13.0157
12.7644
12.5101
12.2743
12.017
11.7126
11.3633
10.9959
10.6468
10.3605
10.1722
10.1517
11.5787
11.8583
11.8319
11.678
11.4545
11.2249
11.0092
10.8585
10.7948
10.8317
10.9934
11.3083
11.7906
12.4304
13.1328
13.6651
13.9446
14.0435
13.9359
13.7132
13.4992
13.3216
13.1426
12.9087
12.609
12.2697
11.9243
11.622
11.4063
11.3588
12.7474
12.95
12.887
12.7095
12.4741
12.2335
11.9892
11.7956
11.6878
11.6829
11.8207
12.1341
12.6259
13.2781
13.9792
14.5013
14.7775
14.8789
14.7946
14.5947
14.41
14.2767
14.1672
14.0273
13.8082
13.5204
13.1943
12.8839
12.6408
12.5529
13.8377
13.9461
13.8487
13.6555
13.4141
13.153
12.8773
12.6424
12.496
12.4625
12.5889
12.912
13.4199
14.085
14.7803
15.2823
15.5463
15.6433
15.5764
15.3936
15.2273
15.1215
15.06
14.9958
14.8665
14.6545
14.3743
14.0731
13.8098
13.6823
14.7852
14.8057
14.6852
14.4857
14.2385
13.9529
13.6496
13.3856
13.2164
13.1694
13.3003
13.6415
14.173
14.8496
15.5324
16.0072
16.2478
16.3319
16.2763
16.1058
15.9495
15.8561
15.8239
15.8051
15.7447
15.6094
15.3889
15.1135
14.8443
14.6803
15.55
15.5127
15.3803
15.182
14.9317
14.6336
14.3163
14.0375
13.8581
13.8105
13.9593
14.3197
14.8722
15.546
16.2072
16.6511
16.8738
16.9463
16.8967
16.7345
16.5831
16.4909
16.473
16.4789
16.4638
16.3775
16.2081
15.9662
15.7039
15.509
16.1394
16.0669
15.9342
15.7484
15.5072
15.2116
14.8915
14.6084
14.4313
14.3957
14.5684
14.9487
15.5142
16.1665
16.7938
17.1949
17.4007
17.4699
17.4339
17.2842
17.1364
17.0393
17.0251
17.0425
17.051
16.9966
16.8586
16.6396
16.3817
16.1619
16.5847
16.4943
16.375
16.2165
15.9973
15.7145
15.4043
15.1311
14.9681
14.9535
15.149
15.5448
16.1105
16.7248
17.3046
17.651
17.8331
17.8947
17.8726
17.7432
17.6071
17.5093
17.4958
17.5179
17.537
17.5041
17.3778
17.1657
16.9026
16.6605
16.9318
16.8417
16.7557
16.6369
16.4519
16.1948
15.9048
15.6505
15.5099
15.5146
15.7298
16.1303
16.6774
17.2365
17.7539
18.0333
18.186
18.2363
18.2251
18.1158
17.9964
17.9061
17.8985
17.9284
17.9576
17.9384
17.8178
17.5895
17.3071
17.0442
17.2488
17.18
17.1469
17.0806
16.9378
16.7137
16.4511
16.2214
16.1029
16.1177
16.3414
16.7285
17.232
17.7159
18.1538
18.3552
18.4726
18.508
18.5018
18.4126
18.314
18.2409
18.2469
18.2933
18.3413
18.3383
18.2307
17.9844
17.6644
17.3736
17.6158
17.588
17.6333
17.6276
17.5322
17.3457
17.1131
16.903
16.7841
16.7976
17.0067
17.3551
17.7836
18.1671
18.5055
18.6183
18.6964
18.7147
18.7076
18.6377
18.562
18.5137
18.5419
18.6181
18.7011
18.729
18.6492
18.4073
18.0553
17.7288
18.0884
18.141
18.2878
18.3628
18.3144
18.1624
17.94
17.7174
17.5798
17.5693
17.7285
18.0031
18.3228
18.5745
18.7893
18.8037
18.8396
18.84
18.8286
18.778
18.7279
18.7108
18.7715
18.8915
19.0273
19.1058
19.0741
18.8638
18.5164
18.1853
18.6613
18.8365
19.1072
19.282
19.2793
19.1426
18.9072
18.6532
18.4681
18.3994
18.4672
18.6257
18.7988
18.8858
18.9504
18.8604
18.8538
18.8381
18.8209
18.7864
18.7643
18.7806
18.8852
19.0641
19.2703
19.4265
19.4635
19.3194
19.0189
18.7285
19.2499
19.5664
19.9622
20.2357
20.2907
20.166
19.9067
19.599
19.3323
19.1621
19.0999
19.1001
19.0915
18.9904
18.8838
18.6954
18.6527
18.6276
18.6053
18.5809
18.5801
18.6299
18.7767
19.0171
19.3131
19.5626
19.6967
19.6503
19.4541
19.2596
19.5986
20.0454
20.552
20.9196
21.0525
20.9463
20.6578
20.2805
19.9039
19.595
19.37
19.1899
18.9866
18.6967
18.4259
18.1699
18.1124
18.0911
18.065
18.0422
18.0506
18.119
18.2933
18.5751
18.9266
19.2696
19.5204
19.6034
19.5489
19.5118
19.235
19.7889
20.3853
20.8335
21.0389
20.9797
20.664
20.2114
19.7203
19.2638
18.8766
18.5307
18.1665
17.7442
17.3716
17.1192
17.0902
17.0996
17.0741
17.0409
17.0345
17.0871
17.2467
17.5226
17.885
18.2718
18.604
18.8078
18.9024
19.0466
17.5487
18.136
18.765
19.2567
19.5069
19.4872
19.1712
18.6849
18.132
17.5938
17.1217
16.7055
16.3009
15.8871
15.5561
15.4177
15.4829
15.561
15.5488
15.4945
15.4405
15.4238
15.4911
15.6665
15.9393
16.2674
16.5841
16.8288
17.022
17.3056
14.1217
14.5765
15.0851
15.5057
15.7442
15.763
15.5264
15.1397
14.7015
14.2821
13.9209
13.6178
13.3534
13.1297
13.0159
13.1138
13.3387
13.5239
13.5488
13.474
13.3491
13.2175
13.1266
13.1038
13.1551
13.2684
13.4066
13.5397
13.6791
13.9253
9.92429
10.1244
10.3746
10.5983
10.7417
10.7773
10.6869
10.5177
10.3216
10.1401
10.0027
9.92416
9.91087
9.98622
10.1823
10.575
10.9811
11.2847
11.3752
11.3034
11.1263
10.8896
10.6424
10.4164
10.2287
10.0818
9.96932
9.88491
9.8373
9.8698
16.1931
18.464
19.4863
20.0022
20.0131
19.6347
19.2332
19.1048
19.4287
20.8303
22.81
25.8353
29.3853
34.2245
39.2353
43.94
46.9876
49.175
45.5518
41.3062
36.7707
32.5945
28.5241
24.7803
21.4687
18.7613
16.714
15.2067
14.1363
13.5489
7.40837
8.21215
8.76777
9.09295
9.19935
9.14174
9.05847
9.0355
9.15479
9.6019
10.3367
11.4464
12.8082
14.5331
16.3662
18.0872
19.2784
19.8489
18.2826
16.6235
15.0076
13.5569
12.2122
10.9552
9.81141
8.83223
8.06218
7.45539
7.09414
6.93452
5.99868
6.52017
6.93588
7.17651
7.2555
7.2134
7.13504
7.1107
7.19952
7.50933
8.02781
8.77022
9.69387
10.8323
12.0577
13.2185
13.9946
14.1466
13.0463
11.8798
10.8051
9.86708
9.02757
8.25195
7.54655
6.93024
6.43149
6.03383
5.79231
5.71399
5.6729
6.10839
6.45017
6.62128
6.65836
6.59801
6.5099
6.47954
6.56118
6.82014
7.23925
7.8275
8.56163
9.46933
10.4612
11.4075
11.9802
11.9419
11.0418
10.0819
9.23216
8.5112
7.88107
7.30442
6.78289
6.32984
5.95519
5.65301
5.45822
5.41339
5.69592
6.13291
6.4499
6.58777
6.57981
6.4955
6.39718
6.35586
6.4287
6.65149
7.00708
7.51127
8.14187
8.9435
9.841
10.6925
11.1435
11.0121
10.2005
9.34383
8.61404
8.01645
7.50605
7.03826
6.61596
6.23098
5.91106
5.67217
5.52964
5.51165
6.08284
6.52481
6.79277
6.86411
6.81405
6.70304
6.59015
6.53854
6.59398
6.78385
7.09166
7.52402
8.11365
8.88843
9.76336
10.5849
10.9595
10.7827
9.99779
9.18517
8.51042
7.96935
7.53273
7.16009
6.80429
6.4816
6.21125
6.00563
5.88053
5.88103
6.68496
7.12699
7.34648
7.36335
7.27773
7.14031
7.01087
6.9478
6.98391
7.14289
7.41341
7.81555
8.38476
9.16776
10.0662
10.8939
11.2234
11.0165
10.2261
9.41912
8.77309
8.28436
7.90365
7.57538
7.26609
6.98364
6.74422
6.55933
6.44876
6.46012
7.4588
7.89225
8.06321
8.03865
7.9219
7.76069
7.61514
7.53919
7.55525
7.68534
7.92792
8.31648
8.88785
9.71189
10.6651
11.5166
11.8206
11.5807
10.7739
9.95151
9.30915
8.84852
8.50609
8.21596
7.94304
7.68953
7.47002
7.29736
7.19588
7.21275
8.36219
8.77702
8.90197
8.84653
8.70468
8.52469
8.36555
8.27624
8.27394
8.3786
8.60329
8.99423
9.59121
10.4742
11.4991
12.3797
12.6651
12.3881
11.5618
10.7101
10.0534
9.60183
9.28462
9.0268
8.78515
8.5552
8.34974
8.18322
8.08431
8.10142
9.35012
9.73571
9.81947
9.74203
9.58332
9.39134
9.22317
9.12212
9.10518
9.19091
9.40989
9.81906
10.4616
11.4142
12.5125
13.415
13.6803
13.3626
12.5199
11.6327
10.9489
10.4903
10.1856
9.95347
9.74012
9.53192
9.33828
9.1744
9.07221
9.08421
10.3751
10.7205
10.769
10.6782
10.5123
10.3171
10.146
10.0377
10.0115
10.0892
10.317
10.76
11.464
12.4894
13.6504
14.556
14.7939
14.4332
13.5826
12.6608
11.9427
11.4624
11.1563
10.9413
10.7531
10.5661
10.3844
10.2221
10.113
10.1154
11.39
11.6844
11.704
11.6081
11.4454
11.257
11.0911
10.9827
10.9556
11.0404
11.2938
11.7846
12.5606
13.6534
14.8595
15.7408
15.9391
15.5357
14.6886
13.7397
12.9844
12.4705
12.1479
11.9387
11.7701
11.603
11.4343
11.2744
11.1581
11.1481
12.3501
12.5837
12.5819
12.4887
12.3394
12.169
12.0177
11.919
11.9028
12.0126
12.3087
12.8588
13.7097
14.8537
16.0778
16.9157
17.0596
16.6138
15.7828
14.8193
14.0285
13.4717
13.118
12.9002
12.7423
12.5921
12.4366
12.2811
12.1599
12.1361
13.2137
13.3812
13.3667
13.2838
13.1588
13.0177
12.8916
12.814
12.8233
12.9767
13.3308
13.948
14.8684
16.0378
17.2463
18.0189
18.1106
17.6234
16.8187
15.8561
15.0356
14.4299
14.0318
13.7893
13.6302
13.4907
13.3465
13.197
13.0733
13.0366
13.9461
14.0487
14.0298
13.9679
13.8795
13.7787
13.688
13.642
13.695
13.9069
14.3301
15.0169
15.993
17.1543
18.3126
18.9973
19.0387
18.5333
17.7603
16.8143
15.9732
15.3169
14.8641
14.58
14.4043
14.2663
14.1292
13.9853
13.8612
13.8114
14.5236
14.5692
14.557
14.5303
14.4917
14.4391
14.3918
14.3885
14.5008
14.7834
15.2837
16.0373
17.05
18.1652
19.2407
19.8117
19.8033
19.3045
18.5791
17.6666
16.8156
16.1116
15.5988
15.259
15.0493
14.8997
14.762
14.6199
14.496
14.4343
14.9382
14.9422
14.9531
14.9787
14.9988
14.9982
14.9988
15.0533
15.2357
15.5951
16.1743
16.9853
18.0095
19.0458
20.0149
20.4555
20.3902
19.9115
19.2447
18.3838
17.5399
16.7991
16.2295
15.8277
15.5693
15.3921
15.2402
15.092
14.9668
14.8956
15.2019
15.1909
15.2444
15.3325
15.4143
15.4683
15.5235
15.6419
15.8969
16.3323
16.9851
17.8373
18.8423
19.7742
20.6225
20.9288
20.8114
20.3591
19.7485
18.9473
18.1289
17.3686
16.7542
16.2945
15.9815
15.7658
15.5885
15.4212
15.2835
15.2036
15.3602
15.3598
15.4702
15.6222
15.7621
15.8691
15.9795
16.1604
16.4825
16.9859
17.6992
18.5694
19.5211
20.3333
21.0551
21.2355
21.0818
20.6586
20.0992
19.3579
18.5782
17.8153
17.1723
16.6686
16.3071
16.0507
15.8426
15.6481
15.4895
15.3972
15.468
15.4997
15.6674
15.8773
16.0677
16.2211
16.38
16.6127
16.9887
17.5451
18.2976
19.1522
20.0256
20.7085
21.3068
21.3829
21.2137
20.8228
20.3075
19.6179
18.8804
18.1337
17.4811
16.9511
16.5538
16.2653
16.0335
15.8184
15.6376
15.5298
15.5662
15.6415
15.8624
16.1211
16.3516
16.5396
16.7313
16.9976
17.4074
17.9952
18.7534
19.5606
20.3369
20.8877
21.3738
21.3798
21.2153
20.8622
20.382
19.7335
19.0341
18.3153
17.6688
17.1311
16.7191
16.415
16.1737
15.9506
15.7589
15.6418
15.6732
15.7991
16.0676
16.362
16.618
16.8236
17.0278
17.3042
17.7214
18.3049
19.0386
19.7717
20.4342
20.8589
21.2524
21.2325
21.0958
20.7846
20.3231
19.6859
19.0001
18.303
17.6794
17.1583
16.7613
16.4717
16.2488
16.0437
15.8592
15.7496
15.7808
15.9555
16.2656
16.5821
16.844
17.0481
17.243
17.5023
17.8927
18.4341
19.0925
19.7414
20.2936
20.6092
20.9364
20.9428
20.8572
20.5945
20.1573
19.5375
18.8649
18.186
17.5821
17.0789
16.702
16.4341
16.2368
16.0633
15.918
15.8403
15.8259
16.0381
16.3787
16.7085
16.9632
17.144
17.3003
17.5122
17.857
18.3479
18.9246
19.456
19.8817
20.1169
20.4147
20.5055
20.4982
20.2884
19.87
19.2527
18.5839
17.9225
17.3414
16.861
16.5074
16.2664
16.1065
15.9825
15.887
15.8542
15.6991
15.9521
16.3036
16.6244
16.8555
17.0035
17.1184
17.2797
17.5561
17.9572
18.4241
18.8384
19.1572
19.3498
19.6722
19.9069
20.0139
19.859
19.4566
18.8297
18.1471
17.4847
16.9123
16.4457
16.1048
15.8839
15.7573
15.6835
15.6465
15.6816
15.2247
15.4988
15.8388
16.1392
16.3469
16.4636
16.5365
16.642
16.8463
17.1471
17.5061
17.8215
18.0655
18.2714
18.6935
19.1384
19.3878
19.3006
18.9105
18.2664
17.5532
16.8672
16.2757
15.7986
15.4474
15.2211
15.1025
15.0569
15.0643
15.1692
14.238
14.4949
14.8011
15.0698
15.2535
15.35
15.3944
15.4585
15.5999
15.817
16.0914
16.3475
16.5724
16.8647
17.4759
18.1972
18.6124
18.6132
18.2332
17.5682
16.81
16.0742
15.4329
14.911
14.5132
14.2397
14.0822
14.0175
14.03
14.1634
12.6531
12.8466
13.0884
13.3098
13.4658
13.5523
13.5931
13.6505
13.7626
13.9366
14.1724
14.4264
14.707
15.1668
16.0506
17.1004
17.6965
17.8087
17.4415
16.7585
15.948
15.1432
14.4237
13.8187
13.3329
12.9655
12.7131
12.5644
12.517
12.5994
10.6116
10.6931
10.8361
10.9906
11.1185
11.2069
11.2689
11.349
11.473
11.6517
11.8992
12.2063
12.6154
13.3029
14.5032
15.9027
16.6812
16.9156
16.5755
15.8854
15.0303
14.1536
13.3445
12.6359
12.0354
11.5411
11.1523
10.8658
10.6898
10.6391
8.6085
8.56758
8.60684
8.67655
8.75351
8.82798
8.90398
9.00475
9.14565
9.3401
9.61342
9.9919
10.5498
11.4866
12.9722
14.6958
15.636
15.9877
15.6971
15.0184
14.1397
13.2136
12.3327
11.533
10.8294
10.2211
9.70669
9.28314
8.95926
8.74776
20.1742
22.913
24.0388
24.5722
24.5304
24.082
23.4092
22.9339
22.7754
23.5415
24.7465
27.074
29.9644
34.7971
40.2494
46.5121
51.417
55.612
50.4022
44.634
39.5479
35.5147
31.8624
28.4611
25.2711
22.486
20.2609
18.5808
17.2933
16.4928
8.87656
9.88647
10.5066
10.851
10.9302
10.8
10.555
10.3505
10.2575
10.4828
10.9524
11.8106
13.0424
14.8986
17.1147
19.5788
21.6467
22.9023
20.463
17.9567
15.9128
14.3877
13.1542
12.0535
11.0201
10.0706
9.27186
8.63735
8.22924
8.06699
7.12903
7.78102
8.24331
8.49569
8.54367
8.41822
8.20809
8.03003
7.95145
8.08462
8.40559
8.99407
9.90726
11.2569
12.9097
14.7151
16.1477
16.6633
14.8446
12.9319
11.4132
10.3387
9.5473
8.8886
8.29269
7.74664
7.28202
6.91148
6.68018
6.64107
6.66665
7.18689
7.56083
7.74398
7.74856
7.60125
7.39064