/*--------------------------------*- C++ -*----------------------------------*\
| =========                 |                                                 |
| \\      /  F ield         | OpenFOAM: The Open Source CFD Toolbox           |
|  \\    /   O peration     | Version:  5.0                                   |
|   \\  /    A nd           | Web:      www.OpenFOAM.org                      |
|    \\/     M anipulation  |                                                 |
\*---------------------------------------------------------------------------*/
FoamFile
{
    version     2.0;
    format      ascii;
    class       volScalarField;
    location    "200/air";
    object      k;
}
// * * * * * * * * * * * * * * * * * * * * * * * * * * * * * * * * * * * * * //

dimensions      [0 2 -2 0 0 0 0];

internalField   nonuniform List<scalar> 
243000
(
0.0622216
0.0667087
0.0689928
0.0697073
0.0690223
0.0671477
0.0643087
0.0611365
0.0580059
0.0561909
0.0568725
0.0665123
0.0795336
0.0928591
0.105192
0.115878
0.12294
0.126315
0.121023
0.113761
0.104316
0.0951329
0.0858183
0.0770847
0.0694743
0.0634468
0.0593049
0.0564931
0.0557505
0.0559024
0.117281
0.12097
0.122443
0.121734
0.119444
0.115685
0.110955
0.106344
0.102619
0.102199
0.106677
0.123741
0.143085
0.163543
0.182679
0.199341
0.21078
0.217202
0.210031
0.198314
0.182978
0.167743
0.152201
0.137885
0.125414
0.115597
0.108725
0.104063
0.10235
0.102692
0.146222
0.151049
0.152759
0.151743
0.148867
0.144334
0.138842
0.133677
0.129967
0.130642
0.138062
0.158196
0.180014
0.203082
0.224825
0.243637
0.256542
0.263837
0.256242
0.242759
0.225227
0.20751
0.189445
0.172735
0.158144
0.14659
0.138397
0.132916
0.130782
0.131434
0.168669
0.174717
0.176793
0.17571
0.172513
0.167529
0.161631
0.156209
0.152772
0.154539
0.164555
0.186266
0.209312
0.233634
0.25673
0.276615
0.290129
0.297765
0.290258
0.275879
0.257196
0.238023
0.218461
0.200273
0.184329
0.171619
0.162484
0.156422
0.153942
0.15477
0.188216
0.195335
0.197693
0.196527
0.193024
0.18766
0.181471
0.175921
0.172861
0.175664
0.187867
0.210298
0.233858
0.258761
0.282548
0.303055
0.316829
0.324636
0.317567
0.302851
0.283596
0.263551
0.243047
0.223881
0.207006
0.193467
0.183622
0.177092
0.174316
0.175226
0.206867
0.214893
0.217347
0.215964
0.212039
0.206222
0.199716
0.194051
0.191358
0.195135
0.20908
0.23175
0.255442
0.280587
0.304782
0.325751
0.339696
0.347685
0.341306
0.326647
0.307186
0.28662
0.265491
0.245609
0.228015
0.213815
0.203385
0.196498
0.193538
0.194504
0.225926
0.234681
0.236984
0.23518
0.230634
0.224209
0.217282
0.21145
0.209042
0.213731
0.228939
0.251603
0.27522
0.300462
0.324953
0.346382
0.360547
0.368813
0.363328
0.349033
0.32963
0.308802
0.287264
0.266837
0.248651
0.233887
0.222977
0.215826
0.212785
0.213821
0.246275
0.255558
0.257432
0.254955
0.24954
0.242304
0.234802
0.228707
0.226454
0.231979
0.247994
0.270506
0.293923
0.319185
0.343934
0.365898
0.380413
0.389115
0.384701
0.371063
0.351955
0.331096
0.309328
0.288504
0.269824
0.25458
0.243282
0.235951
0.232927
0.234069
0.268501
0.278068
0.27922
0.275786
0.269233
0.260956
0.252705
0.246214
0.243945
0.250165
0.266613
0.288827
0.311939
0.337169
0.362156
0.384738
0.39979
0.409126
0.405954
0.393273
0.374719
0.354073
0.332281
0.311222
0.292164
0.276529
0.264938
0.257516
0.254598
0.255894
0.292917
0.302462
0.302599
0.297917
0.289956
0.28041
0.271223
0.264175
0.261684
0.26839
0.284925
0.306679
0.329397
0.354538
0.379738
0.402981
0.418761
0.42896
0.427186
0.415801
0.398096
0.377957
0.356394
0.335311
0.31604
0.300143
0.28837
0.280953
0.278227
0.279711
0.319584
0.32869
0.32759
0.321348
0.311723
0.300701
0.290388
0.282592
0.279642
0.286566
0.302854
0.323983
0.34621
0.371189
0.396545
0.420431
0.437094
0.448393
0.448197
0.43844
0.421935
0.402638
0.381624
0.360803
0.341561
0.325585
0.313771
0.306471
0.304022
0.305717
0.348302
0.356505
0.353935
0.345852
0.334332
0.321651
0.310028
0.301265
0.297604
0.304416
0.320151
0.340479
0.362124
0.386832
0.412246
0.436682
0.454325
0.466937
0.468493
0.460704
0.445776
0.427705
0.407617
0.387428
0.368535
0.35274
0.341075
0.334023
0.33193
0.333851
0.378579
0.385402
0.381126
0.370975
0.357376
0.342886
0.329767
0.319785
0.315162
0.321508
0.336408
0.355782
0.376729
0.401037
0.426366
0.45121
0.469856
0.483907
0.487356
0.481842
0.468895
0.452462
0.433721
0.414601
0.396464
0.381181
0.369915
0.363265
0.361596
0.363739
0.409613
0.414597
0.408412
0.396044
0.380259
0.363839
0.349017
0.337557
0.331752
0.337297
0.351114
0.369395
0.389514
0.413271
0.438347
0.463474
0.483076
0.498565
0.50395
0.500923
0.490327
0.475966
0.459013
0.441439
0.424527
0.410151
0.39959
0.393528
0.392345
0.394679
0.440292
0.443048
0.434825
0.420197
0.402205
0.383724
0.367025
0.353886
0.346707
0.351155
0.36368
0.380761
0.399902
0.422962
0.44761
0.472888
0.493343
0.510281
0.517507
0.517017
0.509005
0.497085
0.482364
0.466824
0.451628
0.438597
0.429077
0.423809
0.423186
0.425648
0.469238
0.469542
0.459269
0.442418
0.422228
0.401652
0.382977
0.367999
0.359312
0.362423
0.373523
0.389308
0.407358
0.429558
0.453595
0.478873
0.500049
0.518381
0.527377
0.529339
0.524022
0.514712
0.502544
0.489473
0.476472
0.465243
0.457109
0.452844
0.452836
0.455344
0.494907
0.492883
0.480551
0.461603
0.439318
0.416698
0.396027
0.379154
0.369016
0.370693
0.380323
0.394709
0.411573
0.432729
0.45589
0.480942
0.502663
0.52215
0.532946
0.537186
0.53458
0.527959
0.518532
0.508161
0.497686
0.488643
0.482257
0.479222
0.479832
0.482294
0.515891
0.511683
0.497471
0.476668
0.452446
0.427911
0.405513
0.387236
0.376991
0.377735
0.385922
0.398662
0.414083
0.433587
0.455179
0.479085
0.501002
0.521377
0.533652
0.540003
0.539963
0.536028
0.529426
0.521867
0.514127
0.507508
0.503064
0.5014
0.502644
0.504984
0.53092
0.524773
0.508916
0.486464
0.46086
0.435131
0.412912
0.394757
0.384287
0.383988
0.390777
0.401999
0.416064
0.433949
0.454152
0.47658
0.497135
0.516333
0.529427
0.537548
0.539662
0.538257
0.534474
0.529741
0.524785
0.520692
0.518316
0.518079
0.519906
0.522026
0.539001
0.531101
0.514201
0.490975
0.466302
0.441404
0.419329
0.401308
0.390558
0.389193
0.394611
0.404456
0.417228
0.433574
0.452501
0.473495
0.492843
0.511071
0.523867
0.532019
0.534798
0.534664
0.533363
0.531319
0.528963
0.527269
0.52697
0.52808
0.530425
0.532256
0.539697
0.53087
0.515119
0.493917
0.470389
0.446353
0.424503
0.406597
0.395498
0.393112
0.397226
0.40585
0.417232
0.432335
0.449988
0.469597
0.487849
0.505203
0.517638
0.525827
0.529241
0.530303
0.530161
0.529316
0.528142
0.527393
0.528394
0.530639
0.533342
0.534841
0.535285
0.52806
0.51421
0.494937
0.47262
0.449528
0.428026
0.410214
0.398852
0.395591
0.398505
0.405857
0.416178
0.430018
0.446438
0.464719
0.481952
0.498446
0.510468
0.518644
0.522594
0.524635
0.525536
0.525823
0.525786
0.526008
0.527397
0.529283
0.531187
0.531779
0.528841
0.522778
0.510876
0.493658
0.472842
0.450736
0.429709
0.412109
0.400522
0.396515
0.398309
0.404628
0.413874
0.426508
0.441725
0.458736
0.475002
0.490616
0.502164
0.510231
0.514568
0.517323
0.519083
0.520365
0.521364
0.522496
0.524141
0.525646
0.526758
0.526522
0.519687
0.514798
0.504725
0.489692
0.470637
0.449815
0.429559
0.412345
0.400672
0.395823
0.396699
0.402005
0.41024
0.421722
0.435755
0.451548
0.466879
0.481571
0.492579
0.500409
0.504942
0.508132
0.510523
0.512596
0.514455
0.516328
0.518092
0.519153
0.519412
0.518424
0.507332
0.503711
0.495641
0.482725
0.465626
0.446356
0.427159
0.410552
0.398905
0.39349
0.393603
0.397962
0.405228
0.415598
0.428459
0.443065
0.457465
0.471187
0.481578
0.489026
0.493547
0.496894
0.499637
0.502223
0.504683
0.507029
0.508753
0.509272
0.508641
0.506932
0.491201
0.489022
0.483187
0.472537
0.457561
0.440023
0.422198
0.406577
0.395308
0.38954
0.389023
0.39253
0.398834
0.408095
0.41977
0.433198
0.446646
0.459334
0.469018
0.475928
0.480212
0.48344
0.486225
0.489004
0.49171
0.494155
0.49561
0.495437
0.493877
0.491431
0.470847
0.470302
0.466901
0.458807
0.446242
0.430841
0.414832
0.400586
0.390038
0.384192
0.383192
0.385966
0.391326
0.399446
0.4099
0.422091
0.434482
0.445993
0.454784
0.460985
0.464819
0.467668
0.470155
0.472701
0.475233
0.477384
0.478292
0.477296
0.474699
0.471462
0.445674
0.447042
0.446511
0.441382
0.431753
0.419214
0.405714
0.393644
0.384494
0.379264
0.378159
0.380488
0.385114
0.392106
0.401108
0.411847
0.422808
0.432723
0.440184
0.445283
0.44823
0.450248
0.451937
0.453692
0.455452
0.456732
0.456592
0.454496
0.450655
0.446461
0.423833
0.427729
0.430193
0.428677
0.423409
0.41539
0.40651
0.398245
0.392114
0.388786
0.38833
0.390453
0.394184
0.39949
0.406195
0.414242
0.422664
0.42998
0.435322
0.438675
0.440221
0.440837
0.441032
0.441155
0.441187
0.440719
0.438971
0.435391
0.430075
0.424573
0.479997
0.485259
0.489567
0.491514
0.491147
0.488678
0.484951
0.480443
0.475735
0.471419
0.467885
0.4655
0.463761
0.462591
0.4617
0.462834
0.46549
0.468572
0.471506
0.474344
0.476933
0.479454
0.481847
0.484112
0.486037
0.487216
0.487344
0.48605
0.48325
0.479773
0.116361
0.1238
0.126823
0.126892
0.124428
0.120101
0.114793
0.1102
0.107684
0.110629
0.118472
0.132037
0.148028
0.166815
0.185309
0.201951
0.213577
0.220834
0.212878
0.201497
0.186683
0.171893
0.156818
0.1426
0.130109
0.1201
0.112982
0.108161
0.106184
0.10616
0.22535
0.23454
0.237856
0.235574
0.229674
0.22151
0.213252
0.207568
0.206925
0.215864
0.23063
0.252354
0.277007
0.30625
0.335517
0.361118
0.379064
0.390925
0.380176
0.362116
0.338486
0.313708
0.288308
0.264548
0.243806
0.227334
0.215743
0.208016
0.205008
0.205702
0.290048
0.301692
0.306931
0.305113
0.29922
0.290899
0.282829
0.277844
0.279475
0.292053
0.310252
0.335417
0.363442
0.395952
0.428507
0.456031
0.475183
0.487402
0.476549
0.456298
0.429812
0.401595
0.372558
0.345015
0.320651
0.300955
0.286823
0.277364
0.273609
0.27456
0.34036
0.354409
0.36068
0.35905
0.353139
0.344894
0.337343
0.333256
0.337026
0.351811
0.371684
0.398094
0.42713
0.46041
0.493974
0.521795
0.540925
0.552859
0.543108
0.522551
0.495278
0.465783
0.435235
0.405947
0.379672
0.35807
0.342172
0.33144
0.326786
0.327737
0.386776
0.403367
0.409922
0.407992
0.401564
0.39299
0.385632
0.382193
0.387667
0.403628
0.424286
0.45101
0.480142
0.513479
0.547563
0.575633
0.594741
0.606565
0.598504
0.57851
0.551198
0.521151
0.489731
0.459277
0.431622
0.408586
0.3913
0.379588
0.374203
0.375229
0.434362
0.453377
0.459606
0.456888
0.449374
0.439925
0.432259
0.429089
0.4357
0.452175
0.473101
0.499739
0.528671
0.562044
0.596763
0.625493
0.644943
0.657048
0.650988
0.632081
0.605148
0.574893
0.542838
0.511334
0.482375
0.458007
0.439483
0.427054
0.421308
0.422586
0.485886
0.506927
0.512266
0.508318
0.499224
0.488417
0.479997
0.476747
0.483911
0.500386
0.521181
0.547533
0.576238
0.609903
0.645462
0.67536
0.69552
0.708336
0.704501
0.68708
0.660879
0.630743
0.598284
0.565869
0.535675
0.510018
0.49036
0.477317
0.471436
0.473099
0.542685
0.565085
0.569024
0.563495
0.552476
0.539975
0.530476
0.526839
0.533969
0.549987
0.570327
0.596198
0.624517
0.658531
0.694988
0.72668
0.748015
0.761971
0.760533
0.745057
0.720013
0.690412
0.657898
0.624841
0.593555
0.566692
0.545986
0.532378
0.526487
0.528559
0.605059
0.627896
0.630002
0.622657
0.609544
0.595191
0.584415
0.580133
0.586608
0.601717
0.62112
0.646128
0.673766
0.708012
0.745243
0.779155
0.802209
0.817837
0.818964
0.805953
0.782611
0.754083
0.722074
0.688844
0.656792
0.628908
0.607266
0.593122
0.587228
0.589628
0.672463
0.694627
0.694604
0.685294
0.670057
0.653861
0.641716
0.636541
0.641701
0.655306
0.673132
0.69683
0.723479
0.757663
0.795339
0.831299
0.85668
0.874657
0.878519
0.868608
0.847648
0.820875
0.790061
0.757338
0.72508
0.696547
0.674156
0.659505
0.653527
0.65606
0.743726
0.76393
0.761797
0.750329
0.733022
0.715108
0.701545
0.695162
0.698277
0.709642
0.725289
0.747161
0.772499
0.806175
0.843823
0.881148
0.908981
0.930239
0.937286
0.931133
0.913354
0.8891
0.860278
0.828913
0.797238
0.768614
0.745775
0.730685
0.724482
0.726914
0.81716
0.834277
0.829943
0.816257
0.796992
0.777512
0.762427
0.754337
0.754625
0.762815
0.775945
0.795431
0.819408
0.851979
0.889172
0.92657
0.956544
0.981396
0.992679
0.991104
0.977474
0.956596
0.9306
0.901518
0.871328
0.843355
0.820522
0.805121
0.798515
0.800594
0.890615
0.903695
0.897066
0.881209
0.860171
0.839236
0.822273
0.81159
0.808539
0.812915
0.82328
0.840307
0.862581
0.893701
0.929673
0.966005
0.997222
1.0253
1.04117
1.04519
1.03724
1.02083
0.998598
0.972743
0.944927
0.918426
0.896181
0.880688
0.873497
0.874919
0.961574
0.969897
0.96094
0.943055
0.920483
0.897918
0.878275
0.864564
0.85823
0.858873
0.866053
0.880251
0.900415
0.929713
0.963858
0.999165
1.03114
1.06033
1.0802
1.08974
1.08851
1.07849
1.06143
1.03994
1.01544
0.991154
0.970117
0.954815
0.946934
0.947339
1.02728
1.03051
1.01927
0.999476
0.975492
0.950423
0.928485
0.911976
0.902154
0.899115
0.90276
0.913904
0.931744
0.958883
0.990812
1.02498
1.05738
1.08772
1.11
1.12341
1.12817
1.12539
1.11503
1.0998
1.07995
1.05879
1.0395
1.02467
1.01612
1.01507
1.08482
1.08335
1.06979
1.04791
1.02213
0.995621
0.971562
0.952199
0.938858
0.932311
0.932478
0.940558
0.956135
0.980809
1.01041
1.04317
1.07549
1.10676
1.13119
1.14817
1.15753
1.16011
1.15606
1.14787
1.13438
1.11809
1.1015
1.08748
1.07828
1.07532
1.13158
1.12657
1.10999
1.08674
1.0599
1.03223
1.00626
0.984176
0.967581
0.957885
0.955221
0.960515
0.974122
0.99631
1.02372
1.05463
1.08614
1.11748
1.14376
1.16375
1.17719
1.18455
1.18627
1.18357
1.17553
1.16419
1.15217
1.14037
1.13078
1.12551
1.16565
1.15698
1.13905
1.11524
1.088
1.05955
1.03213
1.00772
0.987807
0.975048
0.970027
0.973281
0.98534
1.0056
1.03152
1.06127
1.09139
1.12162
1.14847
1.1708
1.18764
1.199
1.20567
1.20794
1.20508
1.19819
1.18912
1.17908
1.1702
1.16347
1.1868
1.17566
1.15706
1.13344
1.10651
1.07781
1.0484
1.02124
0.998795
0.983737
0.976994
0.979181
0.989838
1.00853
1.03318
1.06193
1.09179
1.12208
1.14931
1.17226
1.19054
1.20456
1.21521
1.22172
1.2232
1.22026
1.2138
1.20526
1.19669
1.18843
1.19624
1.18352
1.16548
1.14293
1.11578
1.08621
1.05557
1.02655
1.0024
0.985725
0.977548
0.97933
0.989127
1.00673
1.03037
1.05794
1.08646
1.11565
1.14291
1.16661
1.18648
1.20373
1.21726
1.22687
1.23144
1.23149
1.22696
1.21946
1.21089
1.20136
1.19782
1.18494
1.16725
1.14487
1.11802
1.08828
1.05708
1.02686
1.00035
0.98213
0.97356
0.975915
0.985227
1.00187
1.02459
1.05084
1.07772
1.10535
1.13165
1.15485
1.17473
1.19276
1.20887
1.22188
1.23051
1.23338
1.23045
1.22342
1.21397
1.20369
1.18871
1.17404
1.15735
1.13669
1.11163
1.08269
1.05127
1.02
0.993361
0.975489
0.967537
0.97063
0.979808
0.995547
1.01726
1.04196
1.06703
1.09274
1.11733
1.13916
1.15772
1.1752
1.1921
1.20699
1.21819
1.22359
1.22205
1.21594
1.20671
1.19648
1.16829
1.15438
1.14069
1.12265
1.09938
1.07166
1.04108
1.01068
0.985197
0.968521
0.961791
0.965507
0.97467
0.989368
1.00966
1.03245
1.05561
1.07912
1.10136
1.12098
1.13731
1.15312
1.16931
1.18466
1.1972
1.20425
1.20354
1.19756
1.18791
1.17722
1.13976
1.12873
1.11938
1.10537
1.08472
1.05902
1.0303
1.00189
0.978542
0.963803
0.958697
0.962791
0.971706
0.984955
1.00315
1.02358
1.04471
1.0658
1.08519
1.10178
1.11507
1.12816
1.14237
1.15692
1.1696
1.17725
1.17674
1.17045
1.1601
1.14892
1.10534
1.09896
1.09501
1.08623
1.06962
1.04704
1.02141
0.996202
0.976552
0.964531
0.960703
0.964898
0.972946
0.984254
0.999466
1.0166
1.03531
1.05377
1.06995
1.08304
1.09292
1.10231
1.113
1.12509
1.13638
1.14332
1.14244
1.13575
1.12484
1.11361
1.06424
1.06482
1.06735
1.06576
1.05546
1.03787
1.01766
0.998264
0.982097
0.973111
0.970654
0.974454
0.980307
0.987586
0.997563
1.01021
1.0263
1.0421
1.05519
1.06485
1.07114
1.0767
1.08346
1.09191
1.09932
1.10304
1.10055
1.09279
1.08125
1.07036
1.02042
1.02958
1.04077
1.04769
1.04711
1.03772
1.02455
1.0111
0.999198
0.990455
0.985885
0.985608
0.98594
0.986886
0.989445
0.997121
1.01075
1.02392
1.03428
1.04181
1.04635
1.04962
1.05306
1.05707
1.06097
1.06173
1.05771
1.04782
1.03419
1.02286
0.968335
0.988444
1.01079
1.0279
1.03639
1.03534
1.02685
1.01412
0.999637
0.985815
0.974947
0.968192
0.962856
0.958572
0.954841
0.958352
0.96978
0.980308
0.988731
0.995012
0.998936
1.00157
1.00372
1.00567
1.00741
1.00629
1.00054
0.989958
0.976196
0.966118
0.872652
0.894776
0.919556
0.939962
0.952564
0.955584
0.949407
0.936875
0.921896
0.908174
0.89687
0.889007
0.882585
0.877339
0.872626
0.875649
0.886095
0.89594
0.902968
0.907888
0.910041
0.910608
0.910341
0.909657
0.908437
0.905506
0.899517
0.890413
0.879397
0.871092
0.75758
0.769629
0.782642
0.793245
0.799845
0.801345
0.797781
0.790431
0.781336
0.772653
0.765747
0.761714
0.759686
0.760003
0.76184
0.770896
0.78479
0.797502
0.806397
0.811676
0.812662
0.810769
0.8069
0.801895
0.796314
0.790125
0.783097
0.775108
0.766285
0.75871
0.164208
0.174209
0.178147
0.177962
0.174555
0.168975
0.162777
0.158332
0.157293
0.163813
0.17439
0.190372
0.20876
0.231329
0.253847
0.274371
0.288993
0.299261
0.287683
0.272152
0.25297
0.234887
0.216516
0.198943
0.183129
0.170075
0.160351
0.15358
0.14996
0.149408
0.314661
0.335218
0.342153
0.34026
0.332834
0.322306
0.311838
0.305444
0.306234
0.319348
0.338346
0.364789
0.394651
0.431551
0.469301
0.501433
0.521794
0.534235
0.516945
0.492699
0.462962
0.431885
0.400695
0.371517
0.345718
0.324667
0.309017
0.298172
0.29279
0.292889
0.398003
0.420831
0.42998
0.428658
0.421338
0.410693
0.400551
0.394987
0.398262
0.414117
0.436451
0.466079
0.499159
0.538838
0.579649
0.612773
0.633529
0.644576
0.626921
0.600451
0.568298
0.534324
0.500188
0.467955
0.439227
0.415569
0.397864
0.385575
0.379733
0.3804
0.462867
0.48688
0.496501
0.494985
0.487471
0.476834
0.467275
0.462675
0.468002
0.485311
0.509091
0.539497
0.573186
0.612825
0.65384
0.686157
0.705935
0.715383
0.69907
0.672721
0.640488
0.6062
0.571472
0.538469
0.508845
0.484247
0.465641
0.45274
0.446564
0.447619
0.523679
0.548811
0.557862
0.555556
0.547275
0.53622
0.52688
0.522985
0.529768
0.547803
0.572049
0.602219
0.635554
0.674406
0.714962
0.746377
0.765089
0.773396
0.759067
0.733967
0.70269
0.669062
0.634525
0.601404
0.571414
0.546309
0.527159
0.514
0.507764
0.509193
0.586612
0.612602
0.620375
0.616834
0.607295
0.595405
0.585903
0.582405
0.590032
0.6082
0.632227
0.661647
0.694219
0.732174
0.772159
0.803056
0.821019
0.82878
0.816735
0.793514
0.76383
0.731531
0.697659
0.664748
0.634554
0.609025
0.589398
0.576122
0.570069
0.571889
0.654598
0.680929
0.686837
0.68173
0.670622
0.657618
0.647661
0.644263
0.652101
0.669823
0.693101
0.721439
0.753047
0.79022
0.829713
0.860456
0.878065
0.885817
0.876245
0.85533
0.827714
0.797267
0.764639
0.732289
0.702105
0.676255
0.65622
0.64282
0.636931
0.639084
0.728516
0.754423
0.758092
0.751266
0.738494
0.724255
0.713653
0.710067
0.717477
0.734175
0.756239
0.783225
0.813798
0.850254
0.889272
0.920104
0.937683
0.945861
0.938864
0.920655
0.895578
0.867471
0.836745
0.805433
0.775572
0.749574
0.729193
0.715596
0.709769
0.712092
0.807889
0.832453
0.83374
0.825208
0.810853
0.79542
0.78406
0.780003
0.786324
0.801432
0.821845
0.847264
0.876721
0.912359
0.950899
0.981867
0.999619
1.0085
1.00413
0.988921
0.966843
0.941596
0.913501
0.883837
0.854809
0.828961
0.808345
0.794484
0.788519
0.790789
0.891259
0.913447
0.912483
0.902318
0.886619
0.870169
0.857998
0.853165
0.85776
0.870722
0.889052
0.912643
0.940933
0.975631
1.01368
1.04459
1.06256
1.07231
1.07048
1.05846
1.0398
1.01793
0.993188
0.96591
0.938405
0.91319
0.89255
0.878389
0.872051
0.874002
0.976567
0.995325
0.992319
0.98058
0.963849
0.946703
0.933704
0.927738
0.929956
0.940128
0.955953
0.97758
1.00468
1.03835
1.07612
1.10656
1.1247
1.13537
1.13587
1.12704
1.1121
1.09407
1.07322
1.04925
1.02408
1.00012
0.979789
0.965371
0.958426
0.95983
1.06135
1.07582
1.07081
1.05752
1.03992
1.02246
1.00852
1.00091
1.00032
1.00726
1.02041
1.04006
1.06604
1.09866
1.13612
1.16582
1.18415
1.19576
1.19819
1.19233
1.18101
1.16729
1.15071
1.13096
1.10897
1.08699
1.06745
1.05291
1.04517
1.04579
1.14286
1.15236
1.14527
1.13046
1.11204
1.09444
1.07937
1.06965
1.06624
1.06973
1.08027
1.09815
1.12306
1.15488
1.19159
1.2207
1.23929
1.25171
1.25577
1.25237
1.24405
1.23426
1.22281
1.20799
1.18993
1.17073
1.15259
1.13822
1.12959
1.12903
1.21808
1.22205
1.21279
1.19658
1.17765
1.1597
1.14328
1.13122
1.12509
1.12545
1.13376
1.15034
1.1745
1.20578
1.24154
1.27014
1.28897
1.30198
1.30736
1.30578
1.29958
1.29263
1.28547
1.2764
1.26358
1.24816
1.23215
1.21837
1.20901
1.20654
1.28348
1.28195
1.27049
1.25334
1.23426
1.21552
1.19766
1.18343
1.17497
1.17318
1.17996
1.19595
1.2199
1.25092
1.28569
1.31358
1.33243
1.34576
1.35214
1.35178
1.34679
1.34141
1.33704
1.33242
1.32493
1.3142
1.30143
1.28904
1.27939
1.27514
1.33526
1.32958
1.31629
1.29878
1.27966
1.26006
1.24103
1.22537
1.21547
1.21239
1.21845
1.23443
1.25874
1.28968
1.32344
1.35059
1.36928
1.38257
1.38968
1.38995
1.38541
1.38047
1.37744
1.37538
1.3718
1.36546
1.35631
1.34596
1.33675
1.33096
1.37171
1.36311
1.34886
1.33156
1.3127
1.29299
1.27352
1.25694
1.24609
1.24237
1.24842
1.26469
1.28949
1.31987
1.35259
1.37923
1.39864
1.4122
1.41979
1.42021
1.41555
1.41013
1.40716
1.40612
1.40482
1.40123
1.39497
1.38682
1.37861
1.3717
1.39293
1.38214
1.36777
1.35152
1.33363
1.31431
1.29452
1.27724
1.2661
1.26262
1.26927
1.28618
1.31121
1.34049
1.37199
1.39775
1.41827
1.43307
1.44179
1.4425
1.43743
1.43099
1.42711
1.42571
1.42506
1.42289
1.41822
1.41155
1.4042
1.39674
1.40046
1.3881
1.37436
1.35936
1.34238
1.32361
1.30406
1.2869
1.27644
1.27396
1.28167
1.29925
1.32395
1.35197
1.38209
1.40678
1.428
1.4441
1.45378
1.45494
1.44982
1.4426
1.43764
1.43513
1.43405
1.432
1.42748
1.4212
1.41424
1.40692
1.39539
1.38138
1.36943
1.35728
1.34292
1.32527
1.30606
1.28878
1.2783
1.27759
1.28638
1.30432
1.3284
1.35496
1.3836
1.40716
1.42883
1.44599
1.45671
1.45748
1.45204
1.44384
1.4374
1.43388
1.43179
1.42912
1.42439
1.4178
1.4106
1.40365
1.3774
1.36312
1.35371
1.34451
1.33251
1.31654
1.29842
1.28228
1.27349
1.27478
1.28436
1.30221
1.32545
1.35032
1.37744
1.40002
1.42211
1.44017
1.45156
1.45162
1.44553
1.43626
1.42807
1.42254
1.41882
1.41496
1.40933
1.40201
1.39416
1.38712
1.34821
1.33603
1.33027
1.32468
1.31569
1.30189
1.2854
1.2708
1.26393
1.26655
1.27688
1.29432
1.316
1.33894
1.36464
1.38655
1.40924
1.42826
1.43977
1.43908
1.43187
1.42099
1.41062
1.40269
1.39699
1.39157
1.38458
1.37565
1.36633
1.35867
1.31134
1.30284
1.30151
1.30004
1.29456
1.28331
1.2689
1.25621
1.25095
1.25424
1.26473
1.28117
1.30086
1.32165
1.34608
1.36787
1.39152
1.41162
1.42299
1.42143
1.41277
1.39982
1.38689
1.37627
1.36815
1.36074
1.35204
1.34144
1.3303
1.3215
1.26984
1.26675
1.26974
1.27229
1.27076
1.26239
1.25022
1.2393
1.23506
1.2383
1.24806
1.26296
1.28035
1.29893
1.32236
1.34477
1.3699
1.39132
1.40264
1.40011
1.38976
1.37447
1.35871
1.34514
1.33424
1.32441
1.31369
1.30137
1.28875
1.27922
1.22527
1.22767
1.23522
1.24177
1.24368
1.23838
1.22847
1.21914
1.21525
1.21772
1.22592
1.2387
1.25374
1.2704
1.29338
1.3175
1.34488
1.36806
1.37973
1.3762
1.3641
1.34625
1.32736
1.31045
1.29626
1.28361
1.27068
1.25678
1.24305
1.23319
1.17632
1.18355
1.19534
1.20547
1.21008
1.20777
1.20018
1.19229
1.18809
1.18918
1.19527
1.20574
1.21878
1.23453
1.25816
1.28566
1.31638
1.34207
1.35478
1.35054
1.33678
1.31618
1.29371
1.27275
1.25448
1.23832
1.22285
1.20727
1.19262
1.18255
1.1197
1.13038
1.14499
1.15749
1.16418
1.16432
1.15888
1.15207
1.14743
1.14696
1.15101
1.1597
1.172
1.18872
1.21503
1.24799
1.2834
1.31262
1.32735
1.3232
1.30847
1.28548
1.25916
1.23324
1.20982
1.189
1.1699
1.15175
1.13554
1.12492
1.0526
1.06366
1.07824
1.0908
1.09808
1.09942
1.09551
1.08953
1.08496
1.084
1.08739
1.09597
1.1096
1.12988
1.16167
1.2027
1.24443
1.27849
1.2964
1.29364
1.27903
1.25456
1.225
1.19436
1.16523
1.13831
1.11344
1.09062
1.07107
1.05838
0.982965
0.988491
0.997316
1.00512
1.00953
1.0099
1.00655
1.00179
0.998508
0.998611
1.0032
1.01376
1.03123
1.05821
1.09875
1.15064
1.20034
1.24071
1.26296
1.26351
1.25049
1.22578
1.19432
1.16011
1.12589
1.09311
1.06239
1.03422
1.00969
0.992095
0.941097
0.935551
0.932793
0.930279
0.926765
0.92194
0.91637
0.911189
0.908136
0.90876
0.914537
0.927703
0.950102
0.985835
1.03671
1.10042
1.15871
1.20614
1.23389
1.24054
1.23129
1.20919
1.17887
1.14422
1.10809
1.07232
1.03816
1.00646
0.978128
0.955187
0.208519
0.22194
0.22442
0.22295
0.217947
0.210528
0.203449
0.198667
0.197371
0.203566
0.213348
0.229386
0.247995
0.273248
0.298791
0.322551
0.338512
0.351099
0.33628
0.318164
0.298125
0.27926
0.259917
0.241175
0.223691
0.208962
0.19789
0.190214
0.185648
0.185062
0.398343
0.426016
0.435611
0.434925
0.427579
0.416451
0.404435
0.397205
0.396966
0.409176
0.426555
0.451158
0.480306
0.518744
0.559915
0.595197
0.616769
0.629398
0.605041
0.575582
0.543613
0.513374
0.483556
0.455181
0.429311
0.407187
0.389595
0.377642
0.371523
0.373007
0.499411
0.530232
0.542155
0.541496
0.533526
0.521529
0.509456
0.502688
0.504162
0.517916
0.537791
0.565242
0.597812
0.639701
0.685186
0.722929
0.744457
0.753798
0.727726
0.695311
0.660628
0.627359
0.594786
0.563755
0.535616
0.511944
0.49333
0.480521
0.474367
0.476941
0.575987
0.607445
0.619568
0.618303
0.609738
0.597308
0.585622
0.579507
0.582163
0.596251
0.6171
0.645039
0.678203
0.720367
0.766677
0.804718
0.824638
0.83055
0.80467
0.772001
0.737616
0.704453
0.672029
0.64103
0.612871
0.589244
0.570962
0.558236
0.552223
0.555092
0.645988
0.677255
0.688393
0.686119
0.676717
0.663805
0.652266
0.646641
0.649782
0.663738
0.684455
0.711759
0.744287
0.785782
0.832124
0.870077
0.888211
0.891298
0.865994
0.834052
0.801082
0.769434
0.738509
0.708739
0.681537
0.658574
0.640805
0.628542
0.62304
0.625932
0.716385
0.746974
0.756344
0.752776
0.742291
0.728762
0.717123
0.711661
0.714744
0.727944
0.747717
0.77379
0.805277
0.846061
0.89264
0.930689
0.947321
0.948246
0.923452
0.892443
0.861256
0.83176
0.803104
0.775323
0.749643
0.727679
0.710538
0.698782
0.693792
0.696834
0.790508
0.819831
0.826779
0.821666
0.809958
0.795714
0.783794
0.778203
0.780667
0.792553
0.810863
0.835467
0.865974
0.906485
0.953835
0.992341
1.00786
1.00709
0.982618
0.952363
0.922892
0.895762
0.869799
0.844525
0.820786
0.800136
0.783809
0.772542
0.767857
0.770878
0.868939
0.896266
0.900498
0.893803
0.880894
0.865942
0.853655
0.847678
0.849142
0.859338
0.875957
0.89919
0.92904
0.969869
1.01856
1.05778
1.07247
1.07031
1.04597
1.01613
0.988063
0.96326
0.940131
0.917628
0.896127
0.877023
0.861625
0.850844
0.846369
0.849225
0.950702
0.975308
0.976861
0.968707
0.954762
0.939244
0.926612
0.920101
0.920419
0.928804
0.943795
0.966006
0.99574
1.03745
1.08784
1.12776
1.14177
1.13839
1.11413
1.08432
1.05717
1.03431
1.01386
0.994187
0.975117
0.957738
0.94337
0.933062
0.928655
0.93119
1.03383
1.055
1.05425
1.04484
1.03017
1.01436
1.00155
0.994497
0.993812
1.00054
1.01428
1.03601
1.06631
1.10925
1.16137
1.20165
1.21497
1.21049
1.1864
1.15634
1.12953
1.10794
1.08967
1.07263
1.05602
1.04048
1.02724
1.0174
1.01293
1.01496
1.11576
1.1329
1.13033
1.11996
1.10503
1.08935
1.07667
1.0693
1.06792
1.07352
1.08664
1.1086
1.14016
1.18446
1.23794
1.2779
1.29039
1.28494
1.26131
1.23084
1.20381
1.18263
1.16571
1.15076
1.13642
1.12271
1.11063
1.1013
1.09667
1.09808
1.19372
1.20642
1.20239
1.19149
1.17687
1.16192
1.14984
1.14259
1.14099
1.1463
1.1597
1.18266
1.21608
1.26157
1.3157
1.3544
1.36585
1.35967
1.33692
1.30613
1.27837
1.25662
1.23996
1.22627
1.2137
1.2016
1.19064
1.18181
1.17703
1.17777
1.26493
1.27298
1.26781
1.2569
1.24324
1.2297
1.21883
1.21229
1.2112
1.21731
1.23201
1.25672
1.29236
1.33858
1.39228
1.42889
1.43907
1.43244
1.41113
1.38028
1.35145
1.32821
1.31059
1.29701
1.28539
1.27442
1.26435
1.25598
1.25109
1.25119
1.32667
1.3302
1.32425
1.3139
1.30194
1.29056
1.28156
1.27645
1.27682
1.2849
1.30189
1.32901
1.36693
1.41314
1.46516
1.49886
1.50787
1.5012
1.4819
1.45144
1.42137
1.39581
1.376
1.36117
1.34942
1.33885
1.32919
1.3211
1.3161
1.31555
1.3765
1.3761
1.36981
1.36074
1.35126
1.34274
1.33629
1.33336
1.33637
1.34743
1.36755
1.39755
1.43746
1.48271
1.5318
1.56192
1.56997
1.56413
1.54732
1.51782
1.48659
1.45809
1.43499
1.41745
1.40422
1.39304
1.38311
1.37492
1.3697
1.36833
1.41259
1.40944
1.40329
1.39629
1.39003
1.38494
1.38168
1.38174
1.38847
1.4035
1.42755
1.46068
1.50205
1.54531
1.59025
1.61598
1.62342
1.61936
1.60573
1.57782
1.54569
1.51395
1.48672
1.46517
1.44895
1.43589
1.4247
1.41579
1.41007
1.40773
1.43453
1.42948
1.42433
1.42012
1.41757
1.41634
1.41678
1.42118
1.43258
1.45231
1.48078
1.51698
1.55912
1.59948
1.63955
1.66049
1.66725
1.66544
1.65548
1.6298
1.59725
1.56239
1.53066
1.50416
1.4836
1.46724
1.45358
1.44309
1.4364
1.43293
1.44297
1.43655
1.43336
1.43235
1.43376
1.43704
1.44215
1.4516
1.46824
1.49307
1.52608
1.56501
1.60708
1.64383
1.67889
1.6953
1.70184
1.70242
1.69589
1.67242
1.63998
1.60243
1.56629
1.53447
1.50862
1.48776
1.47044
1.45745
1.4491
1.44434
1.43928
1.43191
1.43144
1.43416
1.43983
1.44805
1.45817
1.47306
1.49509
1.52507
1.56236
1.60336
1.64454
1.67722
1.70771
1.72052
1.72771
1.73086
1.7275
1.706
1.6738
1.63388
1.59354
1.55636
1.52466
1.49847
1.47566
1.45861
1.44862
1.44313
1.4246
1.41796
1.42052
1.42753
1.43722
1.44937
1.46541
1.48572
1.5128
1.5477
1.58858
1.63077
1.67018
1.69896
1.72578
1.73647
1.74551
1.75155
1.75096
1.73102
1.69897
1.65718
1.6131
1.57098
1.53251
1.49787
1.47102
1.45162
1.43857
1.43102
1.40171
1.39694
1.40259
1.41371
1.42793
1.44401
1.46303
1.48819
1.52117
1.56041
1.60379
1.64615
1.68341
1.70876
1.73322
1.74377
1.75602
1.76548
1.76702
1.74816
1.71622
1.67321
1.62603
1.57744
1.53101
1.49193
1.46068
1.43686
1.42012
1.41027
1.37346
1.37105
1.37959
1.39433
1.41235
1.43216
1.45478
1.48253
1.51769
1.55973
1.60585
1.64825
1.68317
1.70657
1.73046
1.74339
1.76009
1.77379
1.77673
1.75879
1.72681
1.68253
1.63059
1.5758
1.52512
1.48132
1.44527
1.41654
1.39595
1.38371
1.34226
1.34217
1.3532
1.37073
1.3915
1.41403
1.43918
1.46958
1.50721
1.55104
1.59738
1.6382
1.67074
1.69301
1.71828
1.73648
1.75918
1.77746
1.78162
1.76427
1.73133
1.68383
1.62832
1.5703
1.51545
1.46702
1.42611
1.39265
1.36837
1.35364
1.30977
1.31161
1.32454
1.34376
1.36599
1.38988
1.41653
1.44821
1.4869
1.5311
1.57612
1.61493
1.64546
1.66849
1.69764
1.72427
1.7542
1.77772
1.78327
1.76567
1.73021
1.68062
1.62294
1.56193
1.50318
1.45031
1.40473
1.36692
1.33902
1.3219
1.27671
1.27995
1.29375
1.31332
1.33557
1.3595
1.38632
1.41818
1.4564