/*--------------------------------*- C++ -*----------------------------------*\
| =========                 |                                                 |
| \\      /  F ield         | OpenFOAM: The Open Source CFD Toolbox           |
|  \\    /   O peration     | Version:  5.0                                   |
|   \\  /    A nd           | Web:      www.OpenFOAM.org                      |
|    \\/     M anipulation  |                                                 |
\*---------------------------------------------------------------------------*/
FoamFile
{
    version     2.0;
    format      ascii;
    class       volScalarField;
    location    "700/porous";
    object      T;
}
// * * * * * * * * * * * * * * * * * * * * * * * * * * * * * * * * * * * * * //

dimensions      [0 0 0 1 0 0 0];

internalField   nonuniform List<scalar> 
36000
(
400
400
400
400
399.999
399.576
399.197
398.846
398.514
398.194
397.883
397.578
397.278
396.982
396.689
396.4
396.114
395.831
395.551
395.275
395.003
394.731
394.459
394.183
393.906
393.629
393.354
393.081
392.81
392.544
392.281
392.022
391.768
391.519
391.284
391.813
392.17
392.44
392.661
392.848
400
400
400
400
399.999
399.626
399.292
398.985
398.698
398.423
398.159
397.902
397.651
397.405
397.164
396.927
396.694
396.465
396.239
396.018
395.8
395.584
395.366
395.146
394.925
394.705
394.487
394.271
394.057
393.847
393.64
393.436
393.237
393.044
392.857
393.204
393.448
393.635
393.784
393.916
400
400
400
400
399.999
399.633
399.307
399.01
398.733
398.47
398.219
397.977
397.743
397.515
397.292
397.075
396.863
396.655
396.452
396.254
396.06
395.868
395.674
395.479
395.283
395.088
394.896
394.706
394.519
394.335
394.155
393.979
393.808
393.642
393.484
393.803
394.031
394.207
394.348
394.469
400
400
400
400
399.999
399.632
399.306
399.01
398.734
398.474
398.226
397.987
397.756
397.533
397.316
397.105
396.898
396.697
396.501
396.311
396.124
395.94
395.754
395.566
395.378
395.192
395.008
394.826
394.648
394.473
394.303
394.137
393.975
393.819
393.671
393.984
394.21
394.385
394.527
394.647
400
400
400
400
399.999
399.631
399.306
399.009
398.734
398.475
398.227
397.989
397.76
397.538
397.323
397.114
396.91
396.711
396.517
396.328
396.144
395.961
395.777
395.591
395.406
395.223
395.041
394.862
394.687
394.515
394.347
394.184
394.026
393.874
393.729
394.041
394.266
394.441
394.583
394.703
400
400
400
400
399.999
399.631
399.304
399.008
398.732
398.472
398.225
397.987
397.758
397.537
397.323
397.115
396.912
396.714
396.52
396.331
396.146
395.963
395.78
395.595
395.41
395.228
395.047
394.869
394.694
394.523
394.356
394.194
394.036
393.885
393.742
394.053
394.279
394.453
394.595
394.715
400
400
400
400
399.999
399.63
399.304
399.007
398.732
398.473
398.225
397.988
397.76
397.54
397.328
397.12
396.918
396.72
396.526
396.335
396.148
395.964
395.781
395.597
395.413
395.231
395.052
394.874
394.699
394.528
394.361
394.199
394.042
393.891
393.748
394.059
394.284
394.458
394.6
394.721
400
400
400
400
399.999
399.63
399.304
399.007
398.732
398.473
398.225
397.989
397.762
397.543
397.331
397.125
396.923
396.725
396.528
396.335
396.145
395.96
395.777
395.594
395.411
395.23
395.051
394.874
394.699
394.528
394.361
394.199
394.042
393.89
393.747
394.058
394.283
394.458
394.599
394.72
400
400
400
400
399.999
399.63
399.304
399.008
398.733
398.474
398.228
397.992
397.766
397.549
397.338
397.133
396.931
396.731
396.532
396.336
396.144
395.957
395.774
395.592
395.411
395.23
395.052
394.875
394.701
394.53
394.363
394.2
394.043
393.892
393.748
394.059
394.284
394.458
394.6
394.72
400
400
400
400
399.999
399.63
399.305
399.009
398.735
398.476
398.23
397.994
397.77
397.554
397.345
397.14
396.938
396.735
396.532
396.333
396.139
395.949
395.766
395.586
395.406
395.227
395.049
394.873
394.699
394.528
394.361
394.198
394.041
393.889
393.745
394.056
394.281
394.455
394.597
394.717
400
400
400
400
399.999
399.632
399.307
399.012
398.738
398.479
398.233
397.998
397.774
397.56
397.353
397.148
396.943
396.737
396.532
396.331
396.135
395.943
395.758
395.579
395.402
395.224
395.048
394.872
394.699
394.528
394.361
394.198
394.04
393.888
393.743
394.054
394.279
394.453
394.595
394.715
400
400
400
400
399.999
399.632
399.308
399.013
398.739
398.481
398.235
398.001
397.777
397.563
397.357
397.152
396.945
396.736
396.529
396.328
396.131
395.938
395.751
395.572
395.396
395.221
395.046
394.871
394.698
394.527
394.36
394.197
394.039
393.886
393.74
394.051
394.276
394.451
394.592
394.712
400
400
400
400
399.999
399.634
399.31
399.016
398.742
398.483
398.237
398.003
397.779
397.566
397.359
397.153
396.944
396.734
396.528
396.327
396.13
395.937
395.748
395.569
395.395
395.221
395.047
394.873
394.701
394.53
394.363
394.199
394.041
393.887
393.739
394.051
394.276
394.45
394.592
394.712
400
400
400
400
399.999
399.635
399.312
399.018
398.744
398.485
398.239
398.004
397.78
397.565
397.358
397.151
396.942
396.732
396.526
396.326
396.129
395.936
395.747
395.567
395.394
395.222
395.05
394.876
394.704
394.533
394.366
394.202
394.043
393.888
393.738
394.05
394.276
394.45
394.592
394.712
400
400
400
400
399.999
399.636
399.313
399.019
398.745
398.486
398.24
398.004
397.779
397.563
397.355
397.148
396.938
396.729
396.524
396.324
396.128
395.935
395.746
395.566
395.393
395.224
395.052
394.88
394.708
394.537
394.369
394.205
394.045
393.889
393.739
394.051
394.277
394.451
394.593
394.713
400
400
400
400
399.999
399.638
399.317
399.023
398.748
398.489
398.241
398.005
397.778
397.561
397.351
397.144
396.935
396.726
396.521
396.321
396.125
395.933
395.744
395.564
395.392
395.224
395.055
394.883
394.711
394.541
394.373
394.208
394.047
393.889
393.736
394.049
394.275
394.45
394.592
394.712
400
400
400
400
399.999
399.639
399.318
399.024
398.749
398.489
398.241
398.004
397.777
397.558
397.347
397.14
396.932
396.723
396.518
396.318
396.122
395.929
395.741
395.561
395.391
395.224
395.056
394.885
394.713
394.542
394.374
394.209
394.047
393.889
393.734
394.048
394.274
394.449
394.591
394.711
400
400
400
400
399.999
399.64
399.32
399.026
398.751
398.491
398.242
398.004
397.775
397.555
397.343
397.136
396.929
396.72
396.515
396.316
396.12
395.927
395.739
395.561
395.391
395.225
395.057
394.886
394.715
394.544
394.375
394.21
394.048
393.888
393.732
394.046
394.273
394.448
394.59
394.71
400
400
400
400
399.999
399.641
399.321
399.027
398.752
398.492
398.243
398.004
397.774
397.553
397.339
397.132
396.926
396.72
396.514
396.315
396.119
395.926
395.739
395.563
395.393
395.227
395.058
394.888
394.716
394.545
394.376
394.21
394.047
393.886
393.729
394.043
394.271
394.446
394.588
394.709
400
400
400
400
399.999
399.642
399.322
399.029
398.754
398.493
398.243
398.004
397.773
397.551
397.336
397.128
396.924
396.721
396.517
396.318
396.122
395.931
395.747
395.571
395.401
395.232
395.062
394.891
394.719
394.547
394.378
394.212
394.048
393.887
393.729
394.044
394.272
394.447
394.59
394.711
400
400
400
400
399.999
399.643
399.324
399.03
398.755
398.494
398.244
398.004
397.773
397.549
397.334
397.124
396.921
396.721
396.52
396.323
396.129
395.939
395.757
395.581
395.408
395.237
395.065
394.893
394.72
394.548
394.378
394.212
394.048
393.886
393.726
394.042
394.27
394.446
394.589
394.71
400
400
400
400
399.999
399.644
399.325
399.031
398.756
398.495
398.245
398.004
397.773
397.549
397.332
397.123
396.919
396.721
396.524
396.329
396.137
395.95
395.768
395.591
395.415
395.242
395.068
394.895
394.721
394.549
394.379
394.212
394.048
393.886
393.726
394.043
394.271
394.447
394.591
394.712
400
400
400
400
399.999
399.644
399.325
399.032
398.757
398.495
398.245
398.004
397.772
397.548
397.33
397.12
396.917
396.72
396.526
396.333
396.143
395.958
395.776
395.596
395.418
395.242
395.067
394.893
394.719
394.546
394.377
394.21
394.045
393.883
393.723
394.04
394.269
394.445
394.589
394.71
400
400
400
400
399.999
399.645
399.326
399.033
398.758
398.497
398.247
398.006
397.773
397.549
397.331
397.12
396.917
396.721
396.529
396.339
396.151
395.966
395.783
395.602
395.422
395.245
395.068
394.893
394.718
394.546
394.376
394.209
394.045
393.882
393.723
394.04
394.269
394.445
394.589
394.71
400
400
400
400
399.999
399.645
399.327
399.034
398.759
398.498
398.247
398.006
397.773
397.548
397.33
397.119
396.915
396.719
396.529
396.341
396.154
395.968
395.784
395.601
395.42
395.241
395.064
394.887
394.712
394.54
394.37
394.203
394.038
393.875
393.716
394.034
394.263
394.439
394.583
394.705
400
400
400
400
399.999
399.646
399.328
399.035
398.761
398.5
398.25
398.008
397.775
397.55
397.331
397.12
396.916
396.72
396.531
396.343
396.155
395.968
395.783
395.598
395.416
395.236
395.057
394.88
394.704
394.532
394.361
394.193
394.028
393.864
393.704
394.022
394.251
394.428
394.571
394.693
400
400
400
400
399.999
399.646
399.327
399.034
398.759
398.498
398.248
398.006
397.772
397.545
397.325
397.112
396.907
396.71
396.518
396.328
396.138
395.949
395.76
395.573
395.388
395.205
395.023
394.843
394.665
394.49
394.316
394.146
393.977
393.811
393.648
393.967
394.197
394.373
394.517
394.638
400
400
400
400
399.999
399.646
399.327
399.033
398.756
398.493
398.24
397.995
397.757
397.526
397.301
397.083
396.872
396.669
396.47
396.273
396.075
395.878
395.681
395.486
395.293
395.101
394.91
394.722
394.536
394.351
394.169
393.989
393.811
393.635
393.463
393.788
394.019
394.197
394.339
394.462
400
400
400
400
399.999
399.638
399.31
399.006
398.719
398.443
398.176
397.917
397.663
397.414
397.171
396.934
396.703
396.478
396.257
396.037
395.815
395.594
395.373
395.153
394.934
394.717
394.501
394.287
394.075
393.864
393.656
393.449
393.244
393.04
392.841
393.193
393.44
393.629
393.779
393.912
400
400
400
400
399.999
399.588
399.214
398.865
398.533
398.212
397.898
397.59
397.287
396.988
396.694
396.405
396.122
395.844
395.569
395.294
395.018
394.741
394.465
394.189
393.915
393.642
393.37
393.1
392.832
392.566
392.301
392.038
391.778
391.519
391.268
391.803
392.163
392.435
392.657
392.845
400
400
400
400
399.999
399.775
399.522
399.253
398.975
398.692
398.408
398.124
397.839
397.556
397.274
396.993
396.713
396.435
396.159
395.886
395.615
395.345
395.075
394.803
394.53
394.256
393.983
393.711
393.441
393.174
392.91
392.649
392.392
392.139
391.896
392.144
392.381
392.592
392.779
392.942
400
400
400
400
400
399.807
399.593
399.367
399.135
398.901
398.666
398.432
398.199
397.968
397.74
397.513
397.289
397.067
396.847
396.63
396.416
396.204
395.992
395.778
395.564
395.35
395.136
394.924
394.714
394.505
394.3
394.097
393.898
393.702
393.512
393.626
393.747
393.865
393.972
394.073
400
400
400
400
400
399.811
399.604
399.386
399.164
398.942
398.72
398.501
398.284
398.07
397.86
397.652
397.448
397.247
397.05
396.856
396.665
396.477
396.288
396.1
395.91
395.722
395.534
395.349
395.165
394.983
394.805
394.629
394.458
394.29
394.127
394.229
394.337
394.443
394.541
394.633
400
400
400
400
400
399.811
399.603
399.386
399.165
398.944
398.725
398.509
398.296
398.086
397.88
397.679
397.48
397.286
397.095
396.908
396.725
396.544
396.363
396.182
396.001
395.821
395.642
395.464
395.289
395.117
394.948
394.782
394.619
394.461
394.308
394.408
394.516
394.621
394.718
394.809
400
400
400
400
400
399.81
399.603
399.386
399.165
398.945
398.726
398.511
398.298
398.09
397.886
397.686
397.49
397.297
397.109
396.924
396.743
396.564
396.385
396.206
396.028
395.85
395.674
395.499
395.327
395.157
394.991
394.828
394.669
394.514
394.365
394.465
394.572
394.677
394.775
394.865
400
400
400
400
400
399.81
399.601
399.384
399.163
398.942
398.723
398.508
398.296
398.088
397.885
397.685
397.49
397.298
397.11
396.925
396.744
396.565
396.387
396.208
396.03
395.853
395.678
395.504
395.333
395.164
394.998
394.836
394.678
394.524
394.376
394.476
394.583
394.688
394.786
394.877
400
400
400
400
400
399.81
399.601
399.384
399.163
398.942
398.724
398.508
398.297
398.09
397.887
397.689
397.494
397.303
397.115
396.929
396.747
396.567
396.389
396.211
396.033
395.857
395.682
395.508
395.337
395.168
395.003
394.841
394.683
394.529
394.381
394.482
394.589
394.694
394.792
394.883
400
400
400
400
400
399.809
399.601
399.383
399.162
398.942
398.723
398.508
398.297
398.091
397.889
397.691
397.497
397.305
397.116
396.929
396.745
396.564
396.385
396.208
396.03
395.854
395.68
395.507
395.336
395.167
395.001
394.839
394.681
394.528
394.38
394.48
394.588
394.692
394.79
394.881
400
400
400
400
400
399.81
399.601
399.384
399.163
398.943
398.724
398.509
398.299
398.094
397.894
397.697
397.503
397.311
397.12
396.932
396.746
396.563
396.384
396.206
396.029
395.854
395.68
395.507
395.337
395.168
395.003
394.841
394.683
394.529
394.381
394.481
394.588
394.693
394.791
394.882
400
400
400
400
400
399.81
399.601
399.384
399.164
398.943
398.725
398.511
398.301
398.097
397.898
397.702
397.508
397.314
397.122
396.931
396.743
396.558
396.378
396.201
396.025
395.85
395.676
395.504
395.334
395.166
395
394.838
394.68
394.526
394.378
394.478
394.585
394.69
394.788
394.879
400
400
400
400
400
399.81
399.603
399.386
399.166
398.945
398.727
398.514
398.305
398.102
397.903
397.708
397.513
397.318
397.123
396.931
396.741
396.555
396.373
396.196
396.021
395.847
395.674
395.503
395.333
395.165
395
394.837
394.679
394.525
394.376
394.476
394.583
394.688
394.786
394.877
400
400
400
400
400
399.811
399.603
399.387
399.167
398.947
398.729
398.515
398.307
398.104
397.906
397.71
397.514
397.317
397.121
396.929
396.739
396.551
396.368
396.19
396.016
395.843
395.671
395.5
395.331
395.163
394.998
394.836
394.677
394.523
394.373
394.473
394.58
394.685
394.783
394.874
400
400
400
400
400
399.811
399.604
399.388
399.168
398.948
398.731
398.517
398.309
398.106
397.908
397.712
397.515
397.317
397.121
396.928
396.738
396.55
396.366
396.188
396.014
395.842
395.671
395.501
395.332
395.165
395
394.838
394.679
394.524
394.373
394.473
394.58
394.685
394.783
394.874
400
400
400
400
400
399.812
399.605
399.389
399.17
398.95
398.732
398.518
398.309
398.106
397.907
397.71
397.513
397.315
397.119
396.926
396.737
396.549
396.365
396.186
396.013
395.842
395.672
395.503
395.334
395.167
395.002
394.84
394.681
394.525
394.373
394.473
394.58
394.685
394.783
394.874
400
400
400
400
400
399.812
399.606
399.39
399.171
398.951
398.733
398.518
398.309
398.105
397.906
397.708
397.511
397.313
397.117
396.925
396.735
396.548
396.364
396.185
396.012
395.842
395.674
395.505
395.337
395.17
395.005
394.842
394.683
394.527
394.374
394.474
394.581
394.686
394.784
394.875
400
400
400
400
400
399.813
399.608
399.393
399.173
398.953
398.734
398.519
398.309
398.104
397.904
397.706
397.508
397.311
397.115
396.923
396.733
396.546
396.362
396.183
396.011
395.842
395.674
395.507
395.339
395.172
395.007
394.845
394.685
394.528
394.373
394.473
394.58
394.685
394.783
394.874
400
400
400
400
400
399.814
399.609
399.393
399.174
398.953
398.735
398.519
398.308
398.102
397.901
397.703
397.505
397.308
397.112
396.92
396.73
396.543
396.359
396.181
396.009
395.841
395.674
395.507
395.34
395.173
395.008
394.845
394.685
394.527
394.372
394.472
394.579
394.684
394.782
394.873
400
400
400
400
400
399.815
399.61
399.395
399.175
398.955
398.736
398.52
398.308
398.101
397.899
397.7
397.503
397.306
397.11
396.918
396.728
396.541
396.357
396.179
396.008
395.841
395.675
395.508
395.341
395.174
395.009
394.846
394.686
394.527
394.371
394.471
394.578
394.683
394.781
394.872
400
400
400
400
400
399.815
399.611
399.396
399.176
398.956
398.736
398.52
398.308
398.1
397.897
397.698
397.501
397.305
397.109
396.917
396.727
396.54
396.357
396.18
396.01
395.842
395.676
395.509
395.342
395.175
395.01
394.847
394.686
394.526
394.369
394.469
394.577
394.682
394.78
394.871
400
400
400
400
400
399.816
399.612
399.397
399.177
398.957
398.737
398.521
398.308
398.099
397.895
397.696
397.5
397.305
397.111
396.919
396.73
396.544
396.362
396.187
396.016
395.848
395.681
395.513
395.346
395.179
395.013
394.85
394.688
394.528
394.371
394.471
394.578
394.683
394.782
394.873
400
400
400
400
400
399.816
399.612
399.398
399.178
398.958
398.738
398.521
398.308
398.099
397.894
397.694
397.498
397.304
397.112
396.922
396.734
396.549
396.37
396.194
396.023
395.853
395.685
395.516
395.348
395.18
395.014
394.85
394.689
394.528
394.37
394.47
394.578
394.683
394.781
394.873
400
400
400
400
400
399.816
399.613
399.399
399.179
398.959
398.739
398.522
398.309
398.099
397.894
397.693
397.497
397.305
397.115
396.926
396.74
396.557
396.379
396.203
396.03
395.859
395.69
395.52
395.351
395.183
395.017
394.853
394.69
394.53
394.371
394.471
394.579
394.684
394.783
394.875
400
400
400
400
400
399.817
399.614
399.399
399.18
398.96
398.74
398.523
398.309
398.099
397.893
397.692
397.495
397.304
397.115
396.928
396.744
396.563
396.384
396.208
396.034
395.862
395.691
395.52
395.35
395.182
395.016
394.851
394.689
394.528
394.369
394.469
394.577
394.683
394.781
394.873
400
400
400
400
400
399.817
399.614
399.401
399.182
398.961
398.742
398.525
398.311
398.101
397.895
397.693
397.497
397.305
397.118
396.933
396.75
396.57
396.391
396.214
396.039
395.866
395.694
395.522
395.352
395.184
395.017
394.852
394.689
394.528
394.37
394.47
394.578
394.683
394.782
394.874
400
400
400
400
400
399.817
399.615
399.401
399.182
398.962
398.742
398.525
398.311
398.101
397.894
397.692
397.496
397.304
397.118
396.934
396.752
396.571
396.392
396.214
396.038
395.864
395.691
395.518
395.348
395.179
395.012
394.847
394.684
394.523
394.364
394.464
394.572
394.678
394.777
394.868
400
400
400
400
400
399.818
399.616
399.403
399.184
398.964
398.745
398.528
398.314
398.103
397.897
397.695
397.498
397.306
397.12
396.936
396.754
396.573
396.393
396.214
396.037
395.861
395.686
395.513
395.342
395.172
395.004
394.838
394.675
394.513
394.353
394.453
394.561
394.667
394.765
394.857
400
400
400
400
400
399.818
399.615
399.402
399.183
398.963
398.744
398.526
398.311
398.099
397.891
397.688
397.49
397.297
397.109
396.923
396.738
396.555
396.372
396.19
396.01
395.832
395.654
395.478
395.304
395.132
394.961
394.792
394.626
394.461
394.298
394.398
394.506
394.612
394.71
394.802
400
400
400
400
400
399.818
399.615
399.401
399.181
398.959
398.737
398.516
398.298
398.082
397.87
397.661
397.458
397.259
397.064
396.871
396.679
396.488
396.298
396.108
395.92
395.733
395.547
395.362
395.179
394.998
394.819
394.641
394.465
394.29
394.118
394.22
394.329
394.436
394.534
394.626
400
400
400
400
400
399.813
399.603
399.38
399.15
398.916
398.681
398.446
398.211
397.979
397.748
397.521
397.297
397.078
396.861
396.646
396.43
396.215
396
395.786
395.573
395.36
395.148
394.938
394.729
394.521
394.315
394.11
393.907
393.705
393.506
393.62
393.742
393.86
393.967
394.069
400
400
400
400
399.999
399.781
399.533
399.266
398.989
398.707
398.422
398.136
397.849
397.564
397.28
396.998
396.72
396.446
396.173
395.902
395.629
395.356
395.083
394.811
394.539
394.267
393.997
393.728
393.46
393.194
392.929
392.666
392.404
392.144
391.889
392.138
392.376
392.588
392.776
392.94
400
400
400
400
400
399.859
399.698
399.519
399.323
399.115
398.896
398.668
398.433
398.192
397.948
397.699
397.448
397.196
396.942
396.687
396.433
396.178
395.922
395.664
395.403
395.142
394.88
394.618
394.356
394.096
393.837
393.581
393.327
393.076
392.83
392.903
392.997
393.1
393.207
393.305
400
400
400
400
400
399.879
399.744
399.596
399.437
399.27
399.096
398.916
398.731
398.543
398.352
398.16
397.966
397.771
397.576
397.381
397.186
396.992
396.797
396.6
396.402
396.204
396.005
395.807
395.61
395.413
395.218
395.024
394.832
394.643
394.457
394.456
394.471
394.496
394.527
394.562
400
400
400
400
400
399.881
399.75
399.609
399.458
399.3
399.137
398.97
398.799
398.627
398.453
398.278
398.103
397.929
397.755
397.582
397.41
397.239
397.067
396.895
396.722
396.549
396.377
396.205
396.033
395.864
395.695
395.529
395.365
395.203
395.045
395.046
395.059
395.08
395.106
395.137
400
400
400
400
400
399.881
399.75
399.609
399.459
399.303
399.141
398.976
398.809
398.64
398.47
398.3
398.131
397.962
397.794
397.628
397.463
397.299
397.134
396.97
396.805
396.64
396.475
396.312
396.149
395.988
395.829
395.672
395.517
395.365
395.217
395.221
395.235
395.257
395.284
395.316
400
400
400
400
400
399.881
399.75
399.609
399.459
399.303
399.142
398.978
398.811
398.644
398.475
398.307
398.139
397.972
397.806
397.642
397.479
397.317
397.155
396.992
396.829
396.667
396.505
396.345
396.185
396.027
395.87
395.716
395.565
395.416
395.271
395.276
395.291
395.314
395.342
395.374
400
400
400
400
400
399.881
399.749
399.608
399.458
399.301
399.14
398.975
398.809
398.641
398.473
398.305
398.138
397.971
397.806
397.642
397.479
397.317
397.155
396.993
396.831
396.669
396.508
396.348
396.189
396.032
395.876
395.723
395.572
395.425
395.28
395.286
395.301
395.325
395.353
395.386
400
400
400
400
400
399.881
399.749
399.607
399.457
399.301
399.14
398.976
398.809
398.642
398.475
398.307
398.141
397.974
397.809
397.644
397.481
397.319
397.157
396.995
396.833
396.672
396.512
396.352
396.193
396.036
395.881
395.727
395.577
395.429
395.285
395.291
395.307
395.33
395.358
395.391
400
400
400
400
400
399.88
399.749
399.607
399.457
399.3
399.139
398.975
398.809
398.642
398.475
398.308
398.141
397.975
397.809
397.644
397.479
397.316
397.154
396.992
396.831
396.669
396.509
396.349
396.191
396.034
395.878
395.725
395.575
395.427
395.283
395.289
395.304
395.328
395.356
395.389
400
400
400
400
400
399.881
399.749
399.607
399.457
399.301
399.14
398.976
398.81
398.644
398.478
398.312
398.146
397.979
397.813
397.646
397.48
397.316
397.154
396.992
396.83
396.669
396.509
396.35
396.191
396.034
395.879
395.726
395.575
395.428
395.283
395.289
395.305
395.328
395.356
395.39
400
400
400
400
400
399.881
399.749
399.608
399.458
399.301
399.14
398.976
398.811
398.646
398.48
398.314
398.148
397.981
397.813
397.646
397.479
397.313
397.15
396.988
396.826
396.666
396.506
396.346
396.188
396.031
395.876
395.723
395.572
395.424
395.28
395.286
395.301
395.325
395.353
395.386
400
400
400
400
400
399.881
399.75
399.609
399.459
399.303
399.142
398.978
398.814
398.649
398.484
398.319
398.152
397.984
397.815
397.646
397.479
397.312
397.147
396.985
396.824
396.664
396.504
396.345
396.187
396.03
395.875
395.722
395.571
395.423
395.278
395.284
395.3
395.323
395.351
395.385
400
400
400
400
400
399.881
399.75
399.609
399.46
399.303
399.143
398.979
398.815
398.65
398.486
398.32
398.153
397.984
397.814
397.645
397.477
397.309
397.143
396.981
396.82
396.66
396.501
396.342
396.184
396.028
395.873
395.72
395.569
395.421
395.276
395.281
395.297
395.32
395.349
395.382
400
400
400
400
400
399.882
399.751
399.61
399.461
399.305
399.144
398.981
398.816
398.652
398.487
398.321
398.154
397.984
397.814
397.645
397.477
397.309
397.143
396.98
396.819
396.66
396.501
396.343
396.185
396.029
395.874
395.721
395.57
395.421
395.276
395.281
395.297
395.32
395.349
395.382
400
400
400
400
400
399.882
399.752
399.611
399.462
399.306
399.145
398.981
398.817
398.652
398.487
398.321
398.153
397.983
397.813
397.644
397.475
397.308
397.142
396.978
396.818
396.659
396.501
396.343
396.186
396.03
395.875
395.722
395.571
395.422
395.276
395.281
395.297
395.32
395.348
395.382
400
400
400
400
400
399.882
399.752
399.612
399.462
399.306
399.146
398.982
398.817
398.651
398.486
398.32
398.151
397.981
397.812
397.643
397.474
397.307
397.141
396.977
396.817
396.659
396.501
396.344
396.187
396.031
395.877
395.724
395.573
395.424
395.277
395.283
395.298
395.321
395.35
395.383
400
400
400
400
400
399.883
399.754
399.613
399.464
399.308
399.147
398.983
398.817
398.651
398.485
398.318
398.15
397.98
397.81
397.641
397.473
397.305
397.139
396.976
396.816
396.658
396.501
396.345
396.188
396.033
395.878
395.725
395.574
395.424
395.277
395.282
395.297
395.321
395.349
395.382
400
400
400
400
400
399.883
399.754
399.614
399.464
399.308
399.147
398.983
398.817
398.65
398.483
398.316
398.148
397.978
397.808
397.639
397.47
397.303
397.137
396.973
396.814
396.657
396.501
396.344
396.188
396.033
395.878
395.725
395.574
395.424
395.276
395.281
395.297
395.32
395.348
395.381
400
400
400
400
400
399.884
399.755
399.614
399.465
399.309
399.148
398.983
398.817
398.65
398.482
398.315
398.147
397.977
397.807
397.638
397.469
397.301
397.135
396.973
396.813
396.657
396.501
396.345
396.189
396.034
395.879
395.726
395.574
395.424
395.276
395.281
395.296
395.319
395.348
395.381
400
400
400
400
400
399.884
399.755
399.615
399.466
399.31
399.149
398.984
398.817
398.649
398.481
398.313
398.145
397.976
397.806
397.637
397.468
397.301
397.135
396.973
396.814
396.657
396.502
396.346
396.19
396.034
395.88
395.727
395.575
395.424
395.275
395.28
395.295
395.319
395.347
395.38
400
400
400
400
400
399.884
399.756
399.616
399.467
399.311
399.149
398.984
398.817
398.649
398.481
398.313
398.145
397.976
397.807
397.638
397.471
397.304
397.139
396.978
396.819
396.662
396.506
396.35
396.194
396.038
395.883
395.73
395.578
395.427
395.277
395.283
395.298
395.321
395.349
395.382
400
400
400
400
400
399.885
399.756
399.616
399.467
399.311
399.15
398.985
398.817
398.649
398.48
398.312
398.144
397.976
397.808
397.64
397.473
397.307
397.144
396.983
396.824
396.666
396.509
396.353
396.196
396.04
395.885
395.732
395.579
395.428
395.278
395.283
395.298
395.321
395.349
395.383
400
400
400
400
400
399.885
399.757
399.617
399.468
399.312
399.151
398.986
398.819
398.65
398.481
398.312
398.144
397.977
397.81
397.644
397.478
397.313
397.151
396.99
396.83
396.672
396.515
396.357
396.201
396.044
395.889
395.735
395.582
395.431
395.28
395.285
395.301
395.324
395.352
395.385
400
400
400
400
400
399.885
399.757
399.617
399.469
399.313
399.151
398.986
398.819
398.65
398.48
398.311
398.143
397.976
397.81
397.645
397.48
397.316
397.154
396.993
396.833
396.674
396.516
396.358
396.201
396.044
395.889
395.735
395.582
395.43
395.279
395.284
395.3
395.323
395.351
395.384
400
400
400
400
400
399.885
399.757
399.618
399.47
399.314
399.153
398.988
398.821
398.652
398.483
398.313
398.145
397.979
397.814
397.649
397.485
397.322
397.16
396.999
396.839
396.679
396.52
396.362
396.204
396.047
395.892
395.737
395.584
395.432
395.281
395.286
395.302
395.325
395.353
395.386
400
400
400
400
400
399.885
399.758
399.618
399.47
399.315
399.154
398.989
398.821
398.652
398.482
398.313
398.145
397.978
397.813
397.649
397.486
397.323
397.161
396.999
396.838
396.678
396.518
396.359
396.201
396.044
395.888
395.733
395.58
395.427
395.276
395.281
395.296
395.319
395.348
395.381
400
400
400
400
400
399.886
399.758
399.62
399.472
399.317
399.156
398.991
398.824
398.655
398.485
398.316
398.147
397.981
397.816
397.652
397.489
397.325
397.162
397
396.838
396.677
396.516
396.356
396.197
396.039
395.882
395.727
395.572
395.419
395.267
395.272
395.286
395.309
395.337
395.369
400
400
400
400
400
399.885
399.758
399.619
399.471
399.316
399.154
398.989
398.821
398.651
398.48
398.31
398.14
397.972
397.806
397.64
397.474
397.309
397.143
396.978
396.814
396.65
396.486
396.324
396.162
396.001
395.841
395.683
395.525
395.369
395.214
395.217
395.231
395.253
395.28
395.312
400
400
400
400
400
399.886
399.758
399.618
399.469
399.312
399.149
398.982
398.811
398.637
398.462
398.287
398.112
397.939
397.766
397.594
397.422
397.249
397.076
396.904
396.731
396.559
396.387
396.216
396.046
395.876
395.707
395.54
395.373
395.208
395.043
395.044
395.056
395.077
395.103
395.134
400
400
400
400
400
399.882
399.75
399.605
399.448
399.281
399.107
398.926
398.741
398.552
398.361
398.167
397.974
397.78
397.587
397.393
397.198
397.002
396.805
396.608
396.411
396.214
396.016
395.819
395.622
395.426
395.231
395.036
394.842
394.649
394.457
394.456
394.47
394.495
394.526
394.561
400
400
400
400
400
399.863
399.705
399.527
399.333
399.126
398.906
398.678
398.442
398.2
397.954
397.705
397.455
397.204
396.953
396.7
396.445
396.188
395.93
395.671
395.412
395.152
394.892
394.631
394.372
394.112
393.854
393.596
393.339
393.083
392.83
392.902
392.996
393.099
393.205
393.304
400
400
400
400
400
399.892
399.773
399.643
399.502
399.35
399.189
399.017
398.837
398.649
398.454
398.253
398.046
397.834
397.618
397.398
397.176
396.951
396.722
396.49
396.255
396.017
395.777
395.535
395.293
395.05
394.807
394.564
394.323
394.083
393.846
393.842
393.851
393.872
393.902
393.928
400
400
400
400
400
399.906
399.806
399.698
399.584
399.463
399.336
399.203
399.065
398.922
398.775
398.624
398.47
398.313
398.153
397.992
397.829
397.664
397.497
397.328
397.156
396.983
396.809
396.634
396.458
396.282
396.107
395.931
395.756
395.583
395.411
395.373
395.342
395.318
395.299
395.283
400
400
400
400
400
399.908
399.811
399.707
399.598
399.484
399.365
399.242
399.115
398.985
398.852
398.717
398.579
398.44
398.299
398.158
398.015
397.872
397.728
397.581
397.434
397.285
397.135
396.986
396.836
396.686
396.537
396.389
396.241
396.095
395.95
395.922
395.897
395.878
395.862
395.85
400
400
400
400
400
399.908
399.81
399.707
399.599
399.486
399.368
399.247
399.123
398.996
398.866
398.734
398.601
398.467
398.332
398.196
398.06
397.923
397.785
397.646
397.505
397.364
397.223
397.081
396.939
396.798
396.658
396.518
396.38
396.243
396.108
396.083
396.063
396.047
396.034
396.026
400
400
400
400
400
399.908
399.81
399.707
399.599
399.486
399.369
399.249
399.125
398.998
398.87
398.739
398.608
398.475
398.341
398.207
398.073
397.938
397.802
397.665
397.527
397.388
397.249
397.11
396.971
396.833
396.695
396.559
396.423
396.29
396.158
396.135
396.116
396.102
396.09
396.084
400
400
400
400
400
399.908
399.81
399.707
399.598
399.485
399.368
399.247
399.123
398.996
398.868
398.738
398.607
398.474
398.341
398.207
398.073
397.938
397.803
397.666
397.528
397.39
397.252
397.113
396.975
396.837
396.7
396.565
396.43
396.297
396.167
396.144
396.126
396.112
396.101
396.096
400
400
400
400
400
399.908
399.81
399.706
399.598
399.485
399.368
399.247
399.123
398.997
398.869
398.74
398.609
398.476
398.343
398.209
398.075
397.94
397.804
397.668
397.53
397.392
397.254
397.116
396.978
396.84
396.704
396.568
396.434
396.301
396.171
396.149
396.131
396.117
396.106
396.101
400
400
400
400
400
399.908
399.81
399.706
399.598
399.485
399.367
399.246
399.123
398.997
398.869
398.74
398.609
398.477
398.343
398.208
398.073
397.938
397.802
397.665
397.528
397.39
397.252
397.114
396.976
396.838
396.701
396.566
396.431
396.299
396.168
396.146
396.128
396.114
396.104