/*--------------------------------*- C++ -*----------------------------------*\
| =========                 |                                                 |
| \\      /  F ield         | OpenFOAM: The Open Source CFD Toolbox           |
|  \\    /   O peration     | Version:  5.0                                   |
|   \\  /    A nd           | Web:      www.OpenFOAM.org                      |
|    \\/     M anipulation  |                                                 |
\*---------------------------------------------------------------------------*/
FoamFile
{
    version     2.0;
    format      ascii;
    class       volScalarField;
    location    "900/air";
    object      alphat;
}
// * * * * * * * * * * * * * * * * * * * * * * * * * * * * * * * * * * * * * //

dimensions      [1 -1 -1 0 0 0 0];

internalField   nonuniform List<scalar> 
243000
(
0.00015103
0.000161825
0.000162651
0.000160824
0.000156985
0.00015178
0.000145725
0.000139261
0.000132741
0.000126483
0.000120704
0.000115754
0.000111844
0.000109276
0.00010793
0.000107248
0.000106585
0.000105729
0.000104743
0.000103743
0.000102813
0.000102004
0.000101465
0.000101356
0.000101028
9.99529e-05
9.69265e-05
9.07347e-05
7.95234e-05
9.47127e-05
0.000662714
0.000734114
0.000765008
0.000784263
0.000794468
0.0007975
0.000794493
0.000786712
0.000775302
0.000761623
0.000746996
0.000733289
0.000721491
0.000712691
0.000705146
0.000695107
0.000680282
0.000661779
0.000641477
0.000620648
0.000599915
0.000579551
0.000560703
0.000545058
0.000529767
0.000511863
0.000488401
0.000453023
0.000415652
0.000420219
0.000715905
0.000791712
0.00082944
0.000853721
0.000867998
0.000874386
0.000873926
0.000868105
0.000858198
0.000845772
0.000832167
0.00081926
0.000807967
0.00079916
0.00079053
0.00077786
0.000758921
0.000735638
0.00071049
0.000685142
0.000660397
0.000636492
0.00061428
0.000595064
0.000577103
0.000557719
0.000534113
0.000501584
0.000463737
0.000454019
0.000728979
0.000817554
0.000864774
0.000895073
0.00091461
0.000925488
0.000928764
0.00092591
0.000918531
0.000908348
0.00089675
0.000885617
0.00087573
0.000867766
0.00085901
0.000845018
0.000823528
0.000797064
0.000768446
0.000739673
0.000711727
0.000684883
0.0006598
0.000637456
0.000616428
0.000594831
0.000569995
0.000538076
0.000500411
0.0004807
0.000715533
0.000815736
0.000879684
0.000918577
0.00094395
0.000959973
0.000967652
0.000968384
0.000964056
0.000956626
0.000947512
0.000938598
0.000930512
0.000923737
0.00091524
0.000900562
0.00087751
0.000848947
0.000817923
0.000786663
0.000756296
0.000727161
0.000699771
0.000674849
0.000651037
0.000627095
0.000600716
0.000568479
0.000530497
0.000504889
0.000689506
0.000799357
0.000877733
0.000928061
0.000961339
0.00098285
0.000995292
0.00100007
0.00099908
0.000994657
0.000988254
0.000981773
0.000975672
0.000970242
0.000962201
0.000947188
0.000923221
0.000893321
0.000860667
0.000827644
0.000795499
0.00076462
0.000735417
0.000708412
0.000682322
0.000656159
0.000628231
0.000595347
0.000556793
0.000526605
0.000663212
0.000774816
0.000865272
0.000926318
0.000969116
0.000997175
0.00101459
0.00102367
0.00102627
0.00102496
0.00102137
0.00101742
0.00101338
0.00100938
0.00100191
0.000986789
0.000962345
0.000931654
0.000897963
0.00086374
0.000830315
0.000798129
0.000767513
0.000738841
0.000710926
0.000682793
0.000653466
0.000619862
0.000580653
0.00054646
0.00063328
0.000751763
0.000845891
0.000917568
0.000968488
0.00100472
0.00102743
0.00104096
0.00104733
0.00104922
0.00104847
0.00104708
0.00104512
0.0010426
0.00103576
0.00102071
0.000996122
0.000965053
0.000930762
0.000895775
0.000861465
0.000828321
0.000796618
0.000766636
0.000737268
0.000707449
0.000676917
0.000642644
0.000602898
0.000565025
0.000601519
0.000728158
0.000825765
0.000903584
0.000962477
0.00100584
0.0010352
0.00105319
0.00106342
0.00106861
0.00107071
0.00107187
0.00107199
0.00107094
0.00106478
0.00104995
0.00102549
0.000994353
0.00095981
0.000924397
0.000889513
0.00085569
0.000823182
0.000792187
0.00076167
0.000730437
0.000698896
0.000664055
0.000623878
0.000582726
0.000572973
0.000702435
0.000806496
0.000887016
0.000952038
0.00100231
0.00103815
0.0010612
0.00107542
0.00108396
0.00108893
0.00109262
0.0010948
0.00109519
0.00108974
0.00107527
0.00105113
0.00102021
0.000985689
0.00095012
0.000914912
0.000880647
0.000847569
0.000815808
0.000784395
0.000751999
0.000719634
0.000684363
0.000643743
0.000599861
0.000554948
0.000673127
0.000787084
0.000870951
0.000938341
0.000995048
0.00103682
0.00106574
0.00108394
0.00109591
0.00110377
0.00110996
0.00111415
0.00111596
0.00111123
0.00109725
0.00107358
0.00104312
0.00100885
0.000973347
0.000938027
0.000903509
0.000870066
0.000837753
0.000805668
0.000772337
0.000739319
0.000703772
0.000662887
0.000616792
0.000560081
0.000641535
0.000766176
0.000855064
0.000925389
0.000984739
0.00103239
0.00106672
0.00108955
0.00110497
0.00111574
0.00112438
0.00113053
0.00113371
0.00112973
0.00111633
0.00109328
0.00106345
0.00102966
0.000994401
0.000959138
0.000924542
0.000890907
0.000858238
0.00082568
0.000791621
0.000758111
0.000722325
0.000681562
0.000633854
0.000588019
0.000611852
0.000742378
0.000838907
0.000912407
0.000973078
0.00102529
0.00106488
0.00109264
0.00111149
0.00112524
0.00113629
0.00114432
0.00114882
0.00114561
0.0011329
0.00111058
0.00108149
0.00104838
0.00101354
0.000978482
0.00094395
0.000910274
0.000877424
0.000844579
0.000809984
0.000776128
0.000740169
0.00069927
0.000650733
0.000619263
0.000596537
0.000715118
0.000821201
0.000899212
0.000961917
0.001016
0.00106084
0.00109315
0.00111598
0.00113257
0.00114603
0.00115586
0.00116162
0.00115919
0.00114724
0.00112576
0.00109754
0.00106521
0.00103096
0.000996245
0.000961907
0.000928332
0.000895452
0.000862489
0.000827601
0.000793477
0.000757399
0.000716479
0.000667371
0.000653093
0.000616372
0.000685105
0.000800581
0.000885608
0.000950797
0.00100568
0.00105493
0.00109171
0.00111861
0.00113804
0.00115384
0.00116539
0.00117235
0.00117072
0.00115961
0.00113907
0.0011118
0.00108035
0.00104683
0.00101259
0.000978577
0.000945241
0.000912465
0.00087953
0.000844604
0.000810271
0.000774159
0.000733285
0.000684065
0.000688662
0.000649209
0.00065931
0.00077693
0.000870505
0.000939611
0.000995876
0.0010475
0.00108872
0.00111943
0.00114196
0.00115997
0.00117312
0.00118124
0.00118044
0.00117022
0.00115069
0.00112447
0.00109398
0.00106126
0.00102765
0.000994107
0.000961134
0.000928599
0.000895813
0.000860996
0.000826553
0.000790526
0.000749789
0.000701036
0.00072435
0.000683599
0.000648535
0.000750105
0.000853426
0.000928341
0.000986263
0.00103884
0.00108445
0.00111875
0.00114441
0.00116461
0.00117926
0.00118845
0.00118851
0.00117925
0.00116081
0.00113571
0.00110626
0.00107443
0.00104154
0.0010086
0.000976139
0.000943973
0.000911437
0.000876877
0.000842437
0.00080656
0.000765998
0.000717656
0.000759778
0.000718925
0.000670101
0.000723699
0.000834335
0.000916418
0.000976786
0.00102952
0.00107912
0.00111689
0.00114543
0.00116792
0.00118396
0.00119414
0.0011951
0.00118686
0.00116958
0.00114566
0.00111735
0.00108649
0.00105441
0.00102219
0.000990362
0.00095871
0.000926574
0.000892383
0.00085802
0.000822344
0.000781958
0.000733684
0.000794886
0.000754614
0.000702432
0.000705321
0.000813414
0.00090383
0.000967586
0.0010207
0.00107292
0.00111398
0.00114513
0.00116992
0.00118732
0.00119843
0.00120033
0.00119317
0.00117712
0.0011545
0.00112739
0.00109759
0.00106643
0.00103503
0.00100395
0.00097295
0.000941369
0.000907662
0.000873424
0.00083798
0.000797792
0.000749579
0.000829521
0.000789671
0.000736206
0.000700578
0.000791964
0.000890531
0.000958612
0.00101218
0.00106596
0.00111009
0.00114372
0.00117048
0.00118942
0.0012014
0.00120428
0.00119828
0.00118357
0.00116235
0.00113654
0.00110789
0.00107774
0.00104728
0.00101706
0.000986852
0.000955988
0.000922912
0.000888824
0.000853599
0.000813604
0.00076548
0.000863569
0.000823694
0.000769618
0.000713325
0.000772686
0.0008767
0.000949869
0.00100398
0.00105823
0.00110522
0.00114119
0.00116972
0.00119007
0.00120308
0.001207
0.00120228
0.00118903
0.00116932
0.00114494
0.00111756
0.00108853
0.00105911
0.00102986
0.00100058
0.00097061
0.000938327
0.000904344
0.00086931
0.000829477
0.000781418
0.000896994
0.000856593
0.000802231
0.000737531
0.000759123
0.000862865
0.000941406
0.000996167
0.00104959
0.00109929
0.00113745
0.00116767
0.00118931
0.00120337
0.00120846
0.00120515
0.00119351
0.00117548
0.00115269
0.00112671
0.00109896
0.0010707
0.00104252
0.00101431
0.000985385
0.000954056
0.000920147
0.000885244
0.000845487
0.000797406
0.000929624
0.000888484
0.000834025
0.000766096
0.000753357
0.000849877
0.000933236
0.000988589
0.00104099
0.00109222
0.00113229
0.0011641
0.00118698
0.00120213
0.00120845
0.00120673
0.00119689
0.00118074
0.00115975
0.00113541
0.00110911
0.00108217
0.00105521
0.00102817
0.00100039
0.000970136
0.000936346
0.000901569
0.000861735
0.000813453
0.000961469
0.000919742
0.000866681
0.000794986
0.000755519
0.000838731
0.000925457
0.000981504
0.00103311
0.00108384
0.00112515
0.00115822
0.00118227
0.00119862
0.00120628
0.00120634
0.00119854
0.00118461
0.0011657
0.00114331
0.00111874
0.00109335
0.0010678
0.00104205
0.00101549
0.000986344
0.000952951
0.000918318
0.00087829
0.000829573
0.000993215
0.000952697
0.000897509
0.000822569
0.00076523
0.000830873
0.00091894
0.000975599
0.0010264
0.00107531
0.00111544
0.00114908
0.00117394
0.00119136
0.0012004
0.00120237
0.00119691
0.00118551
0.00116922
0.00114919
0.00112674
0.00110326
0.00107937
0.00105508
0.0010298
0.00100186
0.00096991
0.000935789
0.000895627
0.00084612
0.00102579
0.000983963
0.000926461
0.00084862
0.000779138
0.000828335
0.000915151
0.000972063
0.00102218
0.00107002
0.00110802
0.00113953
0.00116336
0.00118062
0.00119081
0.00119469
0.00119207
0.00118386
0.00117085
0.00115399
0.00113427
0.00111283
0.00109043
0.00106732
0.00104329
0.00101741
0.000988459
0.000955434
0.000915074
0.000864357
0.00105972
0.00101692
0.000957642
0.00087718
0.000799778
0.000836832
0.000918884
0.0009761
0.00102575
0.00107337
0.00111009
0.00114049
0.00116412
0.00118188
0.00119345
0.00119918
0.00119925
0.00119404
0.00118411
0.0011702
0.00115313
0.00113386
0.00111309
0.00109117
0.00106809
0.00104323
0.00101533
0.000982504
0.000941203
0.000888295
0.00110462
0.00106175
0.00100262
0.000923401
0.000846842
0.00087789
0.000953121
0.00100983
0.00105888
0.00110593
0.00114188
0.00117149
0.00119483
0.0012129
0.00122559
0.00123262
0.00123458
0.00123166
0.00122406
0.00121241
0.00119742
0.00117992
0.00116049
0.0011394
0.00111663
0.00109172
0.00106352
0.00102973
0.000986439
0.000930242
0.00119807
0.00116368
0.00111774
0.00105976
0.00100874
0.00103617
0.00109722
0.00114728
0.00119041
0.00123082
0.00126258
0.00128848
0.00130857
0.00132453
0.00133587
0.00134189
0.00134344
0.00134076
0.00133378
0.00132312
0.00130942
0.00129332
0.00127524
0.00125531
0.00123303
0.00120791
0.00117947
0.00114611
0.0011047
0.00105045
0.00152628
0.0015183
0.00150764
0.00149413
0.0014866
0.00150132
0.001527
0.00154418
0.00155841
0.00157066
0.00158143
0.00159108
0.00159748
0.0016039
0.00160835
0.00160979
0.00160925
0.00160738
0.00160369
0.00159911
0.00159376
0.0015882
0.00158258
0.00157651
0.0015667
0.0015526
0.00153705
0.00152047
0.00150229
0.0014761
0.000183668
0.000198617
0.000202312
0.000201879
0.000198735
0.000193715
0.000187369
0.000180237
0.000172763
0.000165407
0.000158445
0.00015223
0.000146874
0.000142568
0.000138976
0.000135285
0.000130851
0.000125604
0.00011979
0.000113542
0.000106906
9.98874e-05
9.41458e-05
9.05335e-05
8.86746e-05
8.76725e-05
8.92465e-05
8.54773e-05
9.23607e-05
0.00010671
0.000686638
0.000816792
0.000837407
0.000831362
0.000814721
0.000792085
0.000766006
0.000738369
0.000710677
0.000683333
0.000655628
0.000628445
0.0005992
0.000566349
0.000525682
0.000476654
0.000426102
0.000381986
0.000348012
0.000323131
0.000304549
0.000288999
0.0002849
0.000295869
0.000322821
0.000360069
0.000384739
0.000390684
0.000442907
0.000518169
0.00112816
0.00134763
0.00144474
0.00148838
0.00150178
0.00149431
0.00147024
0.00143451
0.00139259
0.00134721
0.00129808
0.00124646
0.00118852
0.0011213
0.00103867
0.000939627
0.00083556
0.00074469
0.000673392
0.000621074
0.00058299
0.000551991
0.000536782
0.000546879
0.000575467
0.000608219
0.000614987
0.000588852
0.000599928
0.00068896
0.00139426
0.00172874
0.00189883
0.00200774
0.00207446
0.00210523
0.00210391
0.00207466
0.00202845
0.00197266
0.00190861
0.00183601
0.00175163
0.0016527
0.0015327
0.00138995
0.00123858
0.00110558
0.000999334
0.000920174
0.00086123
0.000813125
0.000783829
0.000784921
0.000806623
0.000822601
0.000800127
0.000736827
0.000704245
0.000783131
0.00149175
0.00187475
0.00218608
0.00240308
0.00253204
0.00261312
0.00264623
0.00263502
0.00259168
0.00253169
0.00245595
0.00236812
0.00226217
0.00213599
0.00198431
0.00180451
0.00161424
0.00144493
0.00130825
0.00120514
0.00112714
0.00106359
0.00102031
0.00100873
0.0010202
0.00102
0.000969078
0.000869867
0.00079843
0.000863194
0.00148593
0.00193109
0.00232158
0.00265209
0.00289505
0.00303075
0.00310465
0.00311876
0.0030843
0.00302277
0.0029413
0.00284177
0.00271911
0.0025706
0.00239256
0.00218172
0.00196079
0.00176086
0.00159796
0.00147369
0.00137884
0.00130164
0.00124558
0.00122053
0.00121962
0.00120616
0.00113023
0.000998213
0.000890101
0.000941391
0.00139023
0.00191187
0.00238658
0.00279931
0.00314775
0.00337279
0.00348933
0.00353288
0.00351288
0.00345326
0.00336833
0.00326121
0.00312601
0.00296031
0.0027606
0.00252471
0.00227989
0.00205489
0.00186968
0.00172666
0.00161686
0.00152756
0.00146004
0.00142204
0.00140824
0.0013838
0.00128666
0.00112547
0.000981069
0.00101634
0.00125022
0.00181858
0.00238733
0.00288813
0.00330846
0.00363624
0.00380841
0.00388477
0.00388348
0.00382894
0.00374268
0.00363133
0.00348754
0.00330955
0.00309207
0.00283686
0.00257341
0.00232933
0.00212497
0.00196538
0.00184221
0.00174203
0.00166421
0.00161441
0.00158821
0.00155472
0.00143992
0.00125331
0.00107428
0.00108486
0.00109929
0.00168962
0.00233585
0.00292642
0.00341882
0.00381168
0.00407394
0.00418037
0.00420083
0.0041559
0.0040699
0.00395704
0.00380814
0.00362208
0.00339094
0.00312139
0.00284372
0.00258576
0.0023653
0.00219114
0.00205578
0.00194571
0.00185877
0.0017986
0.00176112
0.00172026
0.001591
0.00138262
0.00117152
0.00114761
0.000962961
0.00154614
0.00224261
0.00291918
0.00348607
0.00393615
0.00426617
0.0044239
0.00446972
0.00443848
0.00435509
0.00424261
0.00409206
0.00390148
0.00366074
0.00338125
0.00309327
0.0028253
0.00259188
0.0024051
0.0022583
0.00213937
0.00204452
0.00197544
0.00192813
0.00188158
0.00174073
0.001514
0.00127344
0.001206
0.000858969
0.00140155
0.00212313
0.00286403
0.00351095
0.00402153
0.00439283
0.00462178
0.00469342
0.00468015
0.0046054
0.00449308
0.004343
0.00415116
0.0039046
0.00361902
0.00332411
0.0030486
0.00280623
0.00260814
0.00245092
0.00232377
0.00222221
0.00214569
0.00209019
0.00203959
0.00188976
0.00164776
0.00138052
0.00126222
0.00079647
0.00126328
0.0019889
0.00277311
0.003489
0.00406905
0.00448727
0.00476251
0.00487689
0.00488422
0.00482168
0.00471204
0.00456426
0.00437416
0.00412523
0.0038369
0.00353796
0.00325718
0.00300866
0.00280103
0.00263451
0.00249975
0.00239257
0.00231002
0.002248
0.00219499
0.00203855
0.00178395
0.00149297
0.00132448
0.000773518
0.00113438
0.00184855
0.0026567
0.00342826
0.00407724
0.00455077
0.00485975
0.00502611
0.00505272
0.00500682
0.00490233
0.00475932
0.00457323
0.00432492
0.00403671
0.00373626
0.0034522
0.00319938
0.00298452
0.00280966
0.00266816
0.0025562
0.0024689
0.00240209
0.00234821
0.0021874
0.00192246
0.00161045
0.00139483
0.000813527
0.00104198
0.00170692
0.00252339
0.00333763
0.00404762
0.00458521
0.00493236
0.00513312
0.00518999
0.00516294
0.00507015
0.004931
0.00475053
0.00450545
0.00421981
0.00392004
0.00363448
0.00337856
0.00315899
0.0029768
0.00282959
0.00271347
0.00262258
0.00255269
0.00249921
0.00233633
0.00206305
0.00173238
0.0014748
0.000896319
0.00100383
0.00156922
0.00238054
0.00322538
0.00398913
0.00459031
0.00498238
0.00520872
0.00530583
0.0052921
0.00521474
0.00508107
0.00490748
0.00466793
0.00438697
0.00408983
0.00380439
0.00354659
0.00332401
0.003136
0.00298412
0.00286469
0.00277112
0.00269977
0.00264729
0.00248507
0.00220545
0.00185547
0.00156528
0.00102777
0.00102064
0.00144745
0.00223514
0.00309961
0.00390936
0.00456544
0.00501227
0.00526607
0.00539223
0.00539695
0.00533838
0.0052108
0.0050447
0.00481267
0.00453819
0.00424546
0.00396169
0.00370331
0.0034787
0.00328721
0.00313146
0.00300969
0.00291422
0.00284287
0.00279221
0.00263301
0.00234933
0.00198238
0.00166349
0.00119583
0.00112323
0.00136927
0.00209508
0.002968
0.00381548
0.00452172
0.0050242
0.00530624
0.00545361
0.00548113
0.00544275
0.0053206
0.00516185
0.00493883
0.00467244
0.00438581
0.00410528
0.00384792
0.0036223
0.00342904
0.00327063
0.00314755
0.0030509
0.00298094
0.00293289
0.00277902
0.00249367
0.00211158
0.00176794
0.00139496
0.00126982
0.00134026
0.00197037
0.00283771
0.00371422
0.00446473
0.00501812
0.00533015
0.00549502
0.00554754
0.00552302
0.00540935
0.00525668
0.00504404
0.00478719
0.00450839
0.00423276
0.00397819
0.00375296
0.00355921
0.00339998
0.00327609
0.00317921
0.00311197
0.00306727
0.00292112
0.00263665
0.00224222
0.00187835
0.00162395
0.00145061
0.00139751
0.00187535
0.00271561
0.00361149
0.00439877
0.00499159
0.00533803
0.00551921
0.00559562
0.00557522
0.00547281
0.00532471
0.00512374
0.00487779
0.00460868
0.00434046
0.0040902
0.00386706
0.0036742
0.00351584
0.00339184
0.00329584
0.00323262
0.00319192
0.00305604
0.00277509
0.00237471
0.00199547
0.00187691
0.00165803
0.00151655
0.00182471
0.002608
0.00351217
0.00432723
0.00495277
0.0053287
0.00552403
0.00560486
0.00559507
0.00550358
0.00535796
0.00517051
0.00493644
0.00467929
0.00442079
0.00417721
0.00395845
0.00376819
0.00361155
0.00348899
0.00339547
0.00333751
0.0033015
0.00317872
0.00290441
0.00250398
0.00211711
0.00214269
0.00188343
0.00167882
0.00179528
0.00251923
0.00341952
0.00425197
0.004903
0.00530145
0.00548165
0.00557266
0.00557105
0.00548919
0.0053448
0.00517155
0.00495072
0.00470813
0.00446202
0.00422864
0.0040163
0.00383011
0.00367797
0.00355892
0.00347008
0.00341826
0.00338782
0.00328127
0.0030181
0.00262382
0.0022342
0.00240453
0.0021129
0.00184793
0.00183413
0.00245451
0.00333467
0.00417351
0.00481527
0.00518815
0.00538011
0.00548204
0.00548431
0.00541028
0.00526872
0.00510733
0.00490232
0.00467763
0.0044472
0.00422576
0.00402243
0.00384619
0.00370151
0.00358858
0.00350771
0.00346215
0.00343862
0.00335187
0.00310619
0.00272642
0.00234116
0.00264159
0.00233228
0.00201564
0.00190335
0.00241455
0.00325634
0.00404886
0.00462104
0.0050077
0.00521626
0.00530728
0.00531017
0.00523925
0.00510601
0.00495223
0.00476835
0.00456364
0.00435079
0.00414481
0.00395755
0.00379514
0.00366195
0.00355906
0.00348807
0.00345147
0.00343731
0.00337408
0.003155
0.00280143
0.00243118
0.00283037
0.00251794
0.00216464
0.00197076
0.0023619
0.0031334
0.00381396
0.00435742
0.00474557
0.00493953
0.00501743
0.00501374
0.00494776
0.00483009
0.00468515
0.00452751
0.00434349
0.00415329
0.00396838
0.00380042
0.00365516
0.00353749
0.00344937
0.00339269
0.00336943
0.00336802
0.00333088
0.00314911
0.00283615
0.00249511
0.00294674
0.00264508
0.00227457
0.00203645
0.00231322
0.00293313
0.00353369
0.00402317
0.00434555
0.00452037
0.00458578
0.0045842
0.00453317
0.00444093
0.00431678
0.00418826
0.00403311
0.00387126
0.00371302
0.00356842
0.00344394
0.00334466
0.00327349
0.00323164
0.00322083
0.00323194
0.00321732
0.00307961
0.00281867
0.00252116
0.00297456
0.00269654
0.00233775
0.00207039
0.00222677
0.00271818
0.00318606
0.00357136
0.00383855
0.00398905
0.00406255
0.00408564
0.00406714
0.00401423
0.00392859
0.00383548
0.00372081
0.00359449
0.00346783
0.00334896
0.00324459
0.00316102
0.00310149
0.00306731
0.00305914
0.00306921
0.00306269
0.00296239
0.00275059
0.00250228
0.00294522
0.00269827
0.0023695
0.00208742
0.00209291
0.0024494
0.00281936
0.00312912
0.00336766
0.00352173
0.00361757
0.00367336
0.00369244
0.00368187
0.00364111
0.00358512
0.00351509
0.00342701
0.00333434
0.00324298
0.00315858
0.00308762
0.00303325
0.00299617
0.0029763
0.00296788
0.00294751
0.00285843
0.00267097
0.00245327
0.00295879
0.00275174
0.00247307
0.00220558
0.00213418
0.00237728
0.002675
0.00293318
0.00314413
0.00329563
0.0033993
0.00347058
0.00350979
0.00352279
0.00351028
0.00348099
0.00344215
0.00338609
0.00332416
0.00326083
0.00319928
0.00314459
0.00310034
0.00306609
0.00303774
0.00300956
0.00296581
0.00286754
0.0026902
0.00247352
0.0030164
0.00288784
0.0027192
0.00255742
0.00250052
0.00264817
0.00284261
0.00301375
0.0031566
0.00326413
0.00334109
0.00339619
0.00342731
0.00343693
0.00342365
0.0033991
0.00336594
0.00332282
0.00327813
0.00323622
0.00319757
0.0031654
0.00314114
0.00312302
0.00310663
0.00308606
0.00304915
0.00297831
0.00285422
0.00269051
0.00314758
0.00309304
0.00301644
0.00294194
0.00291714
0.00297157
0.00304881
0.00311984
0.00317958
0.0032234
0.00325945
0.00328753
0.00330211
0.00330405
0.00328753
0.00326434
0.00323852
0.00320848
0.00318123
0.00316063
0.00314768
0.00314301
0.00314559
0.0031532
0.00316244
0.00316811
0.00316502
0.00314969
0.00310385
0.00303372
0.000209045
0.000226272
0.000229837
0.000229793
0.000227024
0.000222213
0.000215816
0.00020838
0.000200347
0.000192191
0.000184162
0.000176586
0.000169461
0.000162896
0.000156378
0.000148946
0.000140117
0.000130364
0.000120318
0.000110145
9.92318e-05
8.65761e-05
8.02585e-05
7.70893e-05
7.8321e-05
8.08514e-05
8.35577e-05
9.16653e-05
0.000103582
0.00011634
0.00083379
0.00105678
0.00113854
0.00115411
0.00114011
0.00111018
0.0010697
0.00102359
0.000974405
0.000924148
0.000871913
0.000818633
0.000759614
0.000693452
0.00061716
0.00053949
0.000474456
0.000433977
0.000413932
0.000406087
0.000397132
0.000364367
0.000378089
0.000445904
0.000470332
0.000425378
0.000394853
0.000431659
0.000536246
0.000638425
0.00136064
0.00175409
0.00198026
0.00209409
0.00213836
0.00213627
0.00209677
0.00203246
0.00195245
0.00186285
0.00176385
0.00165688
0.00153481
0.00139528
0.00123648
0.00107485
0.0009368
0.000846368
0.000796059
0.000773752
0.000747686
0.000688914
0.000682738
0.000785499
0.000841256
0.000758649
0.000675989
0.000691481
0.000808523
0.000977119
0.00171207
0.00228979
0.00261426
0.00282678
0.00294956
0.00300254
0.00299298
0.00293314
0.00284089
0.00272697
0.00259429
0.00244265
0.002266
0.00206036
0.00182882
0.00159407
0.00139171
0.00125381
0.00117136
0.00112691
0.00108432
0.00100634
0.000973077
0.00106288
0.00112872
0.00103458
0.000909897
0.000879755
0.000991279
0.00120436
0.00194921
0.00258557
0.00308713
0.00339187
0.00359795
0.00371704
0.00375229
0.00371037
0.00361664
0.00348861
0.00333355
0.0031446
0.00291933
0.00266021
0.00236777
0.00207238
0.00181869
0.00163927
0.00152728
0.00146189
0.00140382
0.00131299
0.00125911
0.00132234
0.00138428
0.00128702
0.00112871
0.00104574
0.00114244
0.00138842
0.00205723
0.00271361
0.00329801
0.00379294
0.00411775
0.00430818
0.00439589
0.00438226
0.00429317
0.00415691
0.00398201
0.00376564
0.0035028
0.00319927
0.00285539
0.00251143
0.00221732
0.00200239
0.00186384
0.00177901
0.00170747
0.00160843
0.0015395
0.0015741
0.00162467
0.00152635
0.00134045
0.0012077
0.00128485
0.00156781
0.00207756
0.00276447
0.00343321
0.00401927
0.00450973
0.00479851
0.00494333
0.00496479
0.00488467
0.00474312
0.00455364
0.00431581
0.00402296
0.00368433
0.00329829
0.00291642
0.00259078
0.00234579
0.00218339
0.00208041
0.0019968
0.00189252
0.00181269
0.00182123
0.00185722
0.00175756
0.0015506
0.0013715
0.00142182
0.00173583
0.00201742
0.00275028
0.00351061
0.00419096
0.00476308
0.00520229
0.00540844
0.00546832
0.00540314
0.0052588
0.00505856
0.00480385
0.00448799
0.0041221
0.00370297
0.00329241
0.00294198
0.00267266
0.00248837
0.00236843
0.00227337
0.00216554
0.00207809
0.00206489
0.00208555
0.00198348
0.00176089
0.00153926
0.00155407
0.00188745
0.00190289
0.00267964
0.00352912
0.00431261
0.00497051
0.00548718
0.00580245
0.005901
0.00585715
0.00571241
0.00550343
0.00523735
0.00490496
0.0045186
0.00407506
0.00364379
0.00327398
0.00298532
0.00278093
0.00264493
0.00253904
0.00242804
0.00233582
0.00230548
0.00231152
0.00220591
0.00197189
0.00171279
0.00168253
0.0020198
0.00175616
0.00257186
0.00349997
0.00438152
0.00513173
0.00571252
0.00611798
0.00626788
0.00625232
0.00611049
0.00589791
0.00562301
0.00528036
0.00487889
0.00441951
0.00397436
0.0035897
0.00328551
0.00306277
0.00291149
0.00279515
0.00268124
0.00258634
0.00254311
0.00253596
0.0024259
0.00218371
0.00189364
0.00180946
0.00213342
0.0016015
0.00243578
0.00343269
0.00440475
0.00524459
0.00589555
0.00634526
0.00658253
0.0065911
0.00646037
0.00624591
0.00596629
0.0056191
0.0052081
0.00474064
0.0042873
0.00389153
0.0035746
0.00333542
0.00316947
0.00304298
0.0029263
0.00283011
0.00277771
0.00275898
0.0026439
0.0023959
0.0020805
0.00193934
0.00223211
0.00145139
0.00227935
0.00333518
0.0043902
0.00530994
0.00603506
0.00653556
0.00683186
0.00687539
0.00676563
0.00655182
0.00627181
0.00592525
0.0055109
0.00504201
0.00458505
0.00418129
0.00385361
0.00360018
0.00342002
0.00328352
0.00316418
0.00306747
0.00300904
0.00298004
0.00285967
0.00260777
0.00227192
0.0020754
0.00232257
0.00132048
0.00211197
0.00321094
0.00434265
0.005342
0.00613394
0.00668626
0.00701332
0.00711488
0.00702775
0.00681931
0.00654355
0.00620228
0.00579081
0.00532609
0.00486916
0.00446012
0.00412312
0.00385785
0.00366375
0.0035174
0.00339547
0.00329835
0.00323651
0.00319794
0.00307224
0.00281833
0.0024661
0.00221768
0.00241395
0.00123575
0.00194843
0.00306575
0.00426451
0.00534194
0.00619887
0.00680295
0.00716049
0.00730795
0.00724476
0.00705403
0.00678554
0.00645209
0.00604987
0.00559391
0.00514
0.00472817
0.00438347
0.00410799
0.0039006
0.00374469
0.0036201
0.0035221
0.00345835
0.00341065
0.00327977
0.00302508
0.00266083
0.00236273
0.00251641
0.00120654
0.00181306
0.0029086
0.00416023
0.0053123
0.00623558
0.00689092
0.00728058
0.00745646
0.00742226
0.00726182
0.00700023
0.00667519
0.00628838
0.00584459
0.0053963
0.00498426
0.00463365
0.00434924
0.00412957
0.00396457
0.00383692
0.00373739
0.00367191
0.0036152
0.00347949
0.0032252
0.0028539
0.00251311
0.00263055
0.00131459
0.00173367
0.00275403
0.00403742
0.00525701
0.00624594
0.00694995
0.00737432
0.00756986
0.00756864
0.00744782
0.00718791
0.00687009
0.00650386
0.00607474
0.00563469
0.0052252
0.0048708
0.00457877
0.00434832
0.00417516
0.0040429
0.00394158
0.00387358
0.00380745
0.00366748
0.00341521
0.00304246
0.00267437
0.00273493
0.00149985
0.00171718
0.00262029
0.00390651
0.00518144
0.00623218
0.00698359
0.00744199
0.00765364
0.00769034
0.00759827
0.00734551
0.007034
0.00668918
0.00627783
0.00584894
0.00544514
0.00508959
0.00479153
0.00455273
0.00437131
0.00423374
0.00413029
0.00405784
0.00398166
0.00383837
0.00359038
0.00322199
0.00283933
0.0028423
0.00176423
0.00182232
0.0025332
0.00377889
0.00509187
0.00619684
0.00699286
0.00748264
0.00771093
0.00779031
0.00769789
0.00746494
0.0071615
0.0068318
0.006444
0.00602941
0.00563487
0.00528147
0.0049798
0.00473437
0.00454526
0.00440263
0.00429628
0.0042167
0.00413018
0.00398524
0.00374461
0.0033865
0.0030022
0.00296422
0.00206231
0.00200558
0.0024906
0.00366427
0.00499441
0.00614209
0.00697737
0.00749318
0.00774504
0.00781693
0.00774171
0.007532
0.00723972
0.0069191
0.00655907
0.00616253
0.00578143
0.00543418
0.00513013
0.0048807
0.00468619
0.00453888
0.00442753
0.00433928
0.00424338
0.0040997
0.00387042
0.00352801
0.00315674
0.003092
0.00237386
0.00224272
0.00248317
0.00357223
0.00489414
0.00606871
0.00693538
0.00746313
0.00768374
0.00776676
0.00771097
0.00752619
0.00725179
0.00693653
0.00660416
0.00623104
0.0058684
0.00552832
0.00522528
0.00497604
0.00477868
0.00462618
0.00450857
0.00441249
0.00431034
0.00417247
0.00395956
0.00363526
0.00329759
0.00321367
0.00267639
0.00249382
0.00259047
0.00351174
0.00479271
0.00597367
0.0068281
0.00728496
0.00751487
0.00762353
0.00758707
0.00742325
0.00717318
0.00686795
0.00655805
0.00621641
0.005874
0.00554225
0.00524742
0.0050017
0.00480261
0.00464628
0.0045244
0.00442372
0.00432106
0.00419489
0.00400415
0.00370278
0.00340743
0.00332263
0.00294162
0.00271665
0.00269938
0.00344138
0.00468496
0.00580799
0.00655283
0.00698211
0.00725995
0.00736856
0.00734514
0.00719959
0.00697834
0.00669747
0.00640537
0.00610175
0.00577966
0.00546299
0.00518118
0.00494114
0.00474502
0.00458932
0.00446727
0.00436594
0.0042704
0.00416181
0.00399845
0.00372696
0.00347581
0.0034101
0.00314991
0.00290186
0.00281696
0.00334056
0.00449438
0.00546966
0.00612768
0.00658715
0.00686708
0.00698186
0.0069637
0.00684267
0.0066572
0.00641671
0.00614575
0.00588338
0.00558637
0.00529401
0.00502993
0.00480316
0.00461592
0.00446444
0.00434486
0.00424822
0.00416439
0.00407643
0.00394278
0.00370596
0.00349577
0.00346059
0.00329059
0.00303591
0.00290954
0.00324836
0.00414227
0.00498354
0.00562431
0.00607871
0.00634144
0.006458
0.00645543
0.00637037
0.00623153
0.00604268
0.00580961
0.00558809
0.00533017
0.00507113
0.00483294
0.00462471
0.0044494
0.00430529
0.00419023
0.00409927
0.004026
0.0039559
0.00384894
0.0036436
0.00346771
0.00346139
0.00336851
0.00311292
0.00293452
0.00310794
0.00383079
0.00450625
0.00505982
0.0054648
0.00572698
0.00585039
0.00588382
0.00585078
0.00576912
0.00563961
0.00545965
0.00527936
0.00507117
0.00484939
0.00464252
0.00445722
0.00429707
0.00416228
0.00405211
0.00396459
0.00389606
0.00383486
0.00374444
0.00355986
0.00340033
0.0034021
0.00341299
0.0031568
0.00292722
0.00293761
0.00344263
0.00398688
0.00446943
0.00485449
0.00512327
0.0052777
0.00535934
0.0053831
0.00535873
0.00528591
0.00516151
0.00502101
0.00485684
0.00467147
0.00449597
0.00433538
0.00419347
0.00407159
0.00396959
0.00388635
0.00381903
0.0037582
0.00367225
0.00349646
0.00332659
0.00329227
0.00348113
0.00323481
0.00297337
0.00286456
0.00313903
0.00359564
0.00403107
0.00439441
0.00467398
0.00485872
0.00497746
0.00504289
0.00505976
0.0050262
0.00494209
0.00482982
0.0046905
0.00453025
0.00437893
0.00424108
0.00411989
0.0040172
0.00393334
0.0038661
0.00381013
0.00375506
0.00367419
0.00350968
0.00331587
0.00320493
0.00363358
0.00342238
0.0031831
0.0030368
0.00316492