/*--------------------------------*- C++ -*----------------------------------*\
| =========                 |                                                 |
| \\      /  F ield         | OpenFOAM: The Open Source CFD Toolbox           |
|  \\    /   O peration     | Version:  5.0                                   |
|   \\  /    A nd           | Web:      www.OpenFOAM.org                      |
|    \\/     M anipulation  |                                                 |
\*---------------------------------------------------------------------------*/
FoamFile
{
    version     2.0;
    format      ascii;
    class       volScalarField;
    location    "900/air";
    object      epsilon;
}
// * * * * * * * * * * * * * * * * * * * * * * * * * * * * * * * * * * * * * //

dimensions      [0 2 -3 0 0 0 0];

internalField   nonuniform List<scalar> 
243000
(
2.52794
3.61614
4.25647
4.74904
5.06819
5.2189
5.21898
5.09858
4.89103
4.63194
4.35049
4.0895
3.87381
3.73482
3.65881
3.58786
3.46137
3.26758
3.02485
2.75707
2.48244
2.2138
1.96635
1.74902
1.53029
1.29706
1.02874
0.727057
0.553693
0.627213
1.34892
1.83264
2.07566
2.23747
2.32626
2.35222
2.32423
2.25485
2.15649
2.04298
1.92638
1.82137
1.73399
1.67032
1.61602
1.5456
1.44695
1.33083
1.21151
1.09711
0.9908
0.893515
0.809714
0.744253
0.683074
0.615568
0.533964
0.425749
0.324743
0.348007
1.70257
2.3001
2.64866
2.89009
3.0381
3.10455
3.09728
3.03294
2.92746
2.79963
2.6644
2.54033
2.43473
2.35379
2.27513
2.16378
2.00666
1.82574
1.64396
1.47396
1.32001
1.1821
1.0633
0.967191
0.882154
0.795727
0.698029
0.577176
0.457464
0.439556
1.80669
2.53939
3.00696
3.33616
3.55964
3.68624
3.72181
3.68335
3.5918
3.46983
3.33502
3.20905
3.09953
3.01227
2.91742
2.77218
2.56213
2.32053
2.07823
1.85302
1.65088
1.47139
1.31631
1.1877
1.07407
0.964696
0.847902
0.712057
0.573379
0.520252
1.72084
2.53202
3.1759
3.61294
3.91991
4.11955
4.21378
4.2172
4.1551
4.05441
3.9346
3.81993
3.71749
3.63212
3.52697
3.35381
3.09803
2.80221
2.50454
2.22768
1.97955
1.75985
1.56914
1.40808
1.26422
1.12959
0.992017
0.839323
0.681959
0.598152
1.54799
2.39684
3.16482
3.73789
4.14824
4.42755
4.59033
4.64835
4.62673
4.55852
4.46449
4.37115
4.28428
4.20714
4.09644
3.9004
3.60623
3.26352
2.91672
2.59302
2.30245
2.04498
1.82029
1.62775
1.45437
1.2933
1.13417
0.963707
0.787621
0.675371
1.38775
2.19855
3.04424
3.72885
4.26046
4.63073
4.86795
4.98885
5.01661
4.98862
4.92832
4.86387
4.79897
4.73525
4.62284
4.40859
4.08281
3.70054
3.31131
2.94614
2.6171
2.32477
2.06817
1.84566
1.64414
1.45658
1.27591
1.08741
0.892602
0.751695
1.2217
2.01705
2.85685
3.63703
4.26481
4.74565
5.06075
5.24948
5.33361
5.35152
5.33057
5.30053
5.2626
5.21629
5.10539
4.8772
4.52645
4.11164
3.68638
3.28516
2.92181
2.59773
2.31152
2.06095
1.83287
1.61947
1.4178
1.21146
0.998528
0.828137
1.05617
1.84408
2.66513
3.48366
4.19718
4.77203
5.18193
5.44003
5.58488
5.65379
5.67613
5.68448
5.67702
5.65116
5.54448
5.30662
4.93708
4.49633
4.04126
3.60918
3.21562
2.86292
2.54964
2.27303
2.0201
1.78188
1.55999
1.33635
1.10607
0.905824
0.91225
1.67176
2.49162
3.29887
4.07367
4.73098
5.23374
5.56832
5.77738
5.90077
5.96958
6.01929
6.04493
6.04138
5.9413
5.69792
5.31517
4.85501
4.37592
3.91793
3.49807
3.1199
2.78212
2.48156
2.20554
1.94377
1.70263
1.46258
1.21471
0.985673
0.817014
1.4893
2.32661
3.12891
3.91014
4.63823
5.22003
5.64382
5.91721
6.0978
6.21555
6.30835
6.36882
6.38893
6.29741
6.05245
5.66147
5.1881
4.69062
4.21132
3.76901
3.36837
3.00871
2.68639
2.38913
2.10524
1.84586
1.59025
1.32541
1.06917
0.803687
1.30159
2.1612
2.96972
3.74942
4.50383
5.15976
5.66357
6.01039
6.24969
6.41835
6.55519
6.65132
6.69588
6.61462
6.37173
5.97723
5.49597
4.98565
4.48953
4.02832
3.60825
3.22928
2.8875
2.57091
2.26639
1.98991
1.71917
1.44052
1.15803
0.909912
1.129
1.98387
2.81399
3.59531
4.34567
5.06053
5.63786
6.06275
6.36039
6.58186
6.76336
6.89513
6.96439
6.89491
6.65744
6.26379
5.77919
5.26137
4.75269
4.27606
3.83942
3.44367
3.08472
2.75082
2.42727
2.13487
1.84954
1.55624
1.2521
1.05859
1.01687
1.78859
2.65316
3.44642
4.19741
4.93004
5.57725
6.07227
6.43666
6.7094
6.93615
7.10291
7.19665
7.14034
6.91129
6.52248
6.03883
5.51764
5.00107
4.51226
4.0619
3.65195
3.27806
2.9289
2.58795
2.28084
1.98153
1.67392
1.3494
1.23921
1.05103
1.58151
2.47464
3.29856
4.0541
4.78025
5.4879
6.04912
6.48148
6.805
7.07611
7.27712
7.39493
7.35294
7.13504
6.7547
6.27589
5.75507
5.23441
4.73715
4.27594
3.85441
3.46774
3.10529
2.74922
2.42803
2.11572
1.79424
1.45183
1.45343
1.21518
1.39933
2.27454
3.14386
3.91515
4.63957
5.37595
6.00036
6.49447
6.87326
7.18664
7.41984
7.56136
7.53474
7.33044
6.96183
6.49148
5.97453
5.45297
4.95069
4.48197
4.05135
3.65421
3.28027
2.91119
2.57648
2.25227
1.91767
1.56065
1.69477
1.41789
1.29558
2.05817
2.97498
3.77886
4.50435
5.24618
5.93057
6.48137
6.91517
7.27016
7.53373
7.69767
7.68762
7.49924
7.14534
6.68667
6.17691
5.65754
5.15331
4.6801
4.24334
3.83799
3.45426
3.0743
2.72708
2.39159
2.04448
1.67529
1.95961
1.64868
1.34714
1.84718
2.79032
3.64149
4.37479
5.1043
5.84388
6.44768
6.93081
7.3292
7.62081
7.80582
7.81338
7.64305
7.30672
6.8627
6.36338
5.84919
5.34594
4.87113
4.43087
4.01987
3.62862
3.23949
2.8805
2.53422
2.17465
1.79003
2.24781
1.90925
1.5364
1.68811
2.5948
3.50033
4.25158
4.97005
5.74381
6.39603
6.92297
7.36388
7.68245
7.88715
7.91358
7.76338
7.44737
7.02139
6.53549
6.02945
5.53007
5.05644
4.61515
4.20109
3.8047
3.40816
3.03784
2.68103
2.30906
1.90855
2.55843
2.19259
1.76787
1.61818
2.39998
3.35572
4.13382
4.84261
5.63258
6.32794
6.89507
7.37093
7.7199
7.94288
7.98926
7.86149
7.56884
7.16444
6.69512
6.20013
5.70741
5.23759
4.79784
4.38336
3.98435
3.58241
3.20089
2.83331
2.44873
2.03219
2.89027
2.49341
2.02064
1.65616
2.22487
3.20978
4.0213
4.72245
5.51032
6.2435
6.84727
7.35411
7.729
7.97332
8.04101
7.93831
7.67244
7.29312
6.84391
6.36323
5.88009
5.41675
4.98095
4.56864
4.16978
3.76466
3.37123
2.99235
2.59453
2.16143
3.24225
2.80909
2.29227
1.79821
2.0944
3.06732
3.91428
4.6102
5.37515
6.14219
6.77813
7.3132
7.71177
7.97619
8.06796
7.99361
7.75831
7.4081
6.98317
6.52059
6.05045
5.59636
5.16685
4.75921
4.36305
3.95705
3.55089
3.15965
2.7474
2.29659
3.61196
3.13894
2.57992
1.99727
2.02383
2.93585
3.81254
4.50306
5.23878
6.02309
6.68469
7.24405
7.66394
7.94922
8.06577
8.02353
7.82334
7.5074
7.11191
6.67263
6.21961
5.77812
5.35781
4.95692
4.56543
4.1604
3.74156
3.33739
2.90845
2.43778
3.9983
3.48546
2.89917
2.22723
2.01387
2.82362
3.71701
4.40429
5.11645
5.88394
6.55725
7.1327
7.57094
7.87772
8.02064
8.01456
7.85502
7.58101
7.22208
6.81299
6.38314
5.95913
5.55181
5.16028
4.77495
4.37207
3.94381
3.52648
3.07881
2.5851
4.41057
3.87836
3.22093
2.46435
2.06037
2.74213
3.63749
4.32246
5.01351
5.74111
6.38687
6.96332
7.41034
7.73402
7.90286
7.93531
7.82301
7.59868
7.28793
6.91909
6.52157
6.12279
5.73422
5.356
4.97916
4.58104
4.15771
3.73115
3.26408
2.74221
4.86142
4.27355
3.54381
2.7049
2.15382
2.71119
3.59032
4.2727
4.94844
5.65283
6.25665
6.78883
7.21063
7.52626
7.71555
7.78532
7.73039
7.56918
7.32104
7.00868
6.65565
6.286
5.91468
5.54708
5.18059
4.80253
4.40268
3.97163
3.48132
2.92273
5.36361
4.72005
3.91541
2.98703
2.31369
2.78297
3.629
4.32056
4.99416
5.70004
6.28663
6.80255
7.2226
7.5496
7.76718
7.87485
7.87309
7.76879
7.57568
7.31153
6.99656
6.65231
6.29411
5.93014
5.56163
5.18093
4.77373
4.31984
3.78839
3.17209
6.08022
5.37754
4.49867
3.49035
2.73993
3.18836
4.03618
4.77207
5.48226
6.22505
6.83454
7.36713
7.80629
8.15907
8.41276
8.55495
8.59356
8.53135
8.3738
8.13686
7.83905
7.5009
7.13677
6.75497
6.3578
5.94009
5.4882
4.97448
4.36218
3.64344
7.78059
7.10853
6.27154
5.32688
4.65109
5.16671
6.11171
6.96128
7.75869
8.55839
9.2233
9.79297
10.2501
10.6264
10.8985
11.0446
11.082
11.0152
10.8436
10.5853
10.2595
9.8856
9.47651
9.03884
8.56414
8.049
7.48987
6.86528
6.13542
5.25797
16.2085
15.9436
15.5946
15.1789
14.9946
15.5228
16.3243
16.8661
17.3293
17.7307
18.0951
18.4273
18.6447
18.8762
19.0329
19.0844
19.0656
18.9992
18.8666
18.7035
18.5149
18.3206
18.125
17.9155
17.5708
17.0984
16.5891
16.0592
15.4781
14.6677
4.53359
6.67912
8.18963
9.39611
10.289
10.8581
11.1018
11.0591
10.7848
10.3562
9.83057
9.28498
8.74881
8.26358
7.77656
7.16427
6.36809
5.44377
4.49289
3.58586
2.76605
2.06484
1.5659
1.24306
1.03239
0.876509
0.782394
0.670288
0.692755
0.90195
3.33231
4.14788
4.86624
5.47526
5.94621
6.26393
6.41496
6.41219
6.27821
6.05238
5.76936
5.46118
5.14686
4.84157
4.51478
4.0933
3.5969
3.0524
2.54196
2.07858
1.67296
1.32193
1.03337
0.827588
0.690083
0.601211
0.531034
0.46887
0.434358
0.480599
3.09311
3.70729
4.25012
4.73101
5.12468
5.4109
5.57262
5.61367
5.54633
5.39554
5.188
4.95103
4.69894
4.44616
4.1602
3.78051
3.32772
2.84251
2.39172
1.98987
1.64082
1.33714
1.07922
0.889431
0.763853
0.68053
0.613222
0.530209
0.459476
0.501885
2.90911
3.44557
3.93381
4.37856
4.76215
5.0606
5.25415
5.3409
5.32992
5.23581
5.07977
4.89254
4.68401
4.46573
4.2032
3.84168
3.39804
2.92622
2.48356
2.0916
1.75434
1.46048
1.20505
1.01128
0.883146
0.796942
0.724319
0.629709
0.538555
0.561236
2.61889
3.15497
3.64834
4.09823
4.49971
4.82959
5.06493
5.19967
5.24032
5.19624
5.09025
4.94343
4.77118
4.58254
4.33812
3.98807
3.54651
3.07574
2.63103
2.23696
1.89909
1.60427
1.34493
1.1431
1.00794
0.916344
0.838376
0.736586
0.631802
0.635986
2.17908
2.79655
3.33888
3.82254
4.25969
4.63011
4.91186
5.09562
5.18485
5.19018
5.12722
5.02012
4.88169
4.7201
4.49141
4.1491
3.70903
3.23693
2.78834
2.38973
2.04772
1.74875
1.48424
1.2739
1.13007
1.03173
0.949157
0.842356
0.726672
0.71327
1.71647
2.40288
3.01067
3.54317
4.02457
4.43985
4.7687
5.00059
5.13655
5.18673
5.16628
5.09686
4.99102
4.85448
4.63988
4.30454
3.86685
3.39428
2.94253
2.53973
2.19275
1.88863
1.61903
1.40095
1.24817
1.14232
1.05574
0.94597
0.822089
0.789367
1.345
2.06543
2.70127
3.2751
3.79546
4.25468
4.6282
4.90559
5.08569
5.1777
5.19792
5.16451
5.08985
4.9767
4.77501
4.44695
4.01326
3.54243
3.08931
2.68371
2.33204
2.02257
1.74818
1.52361
1.36257
1.24911
1.15915
1.04852
0.919206
0.863487
1.0793
1.80711
2.45694
3.03579
3.58206
4.07586
4.48949
4.80814
5.02911
5.16037
5.21882
5.21992
5.17466
5.08329
4.8937
4.57361
4.14606
3.67935
3.22714
2.82038
2.46493
2.15038
1.87181
1.64222
1.47409
1.35362
1.26098
1.15126
1.01951
0.936689
0.894393
1.61677
2.27569
2.84419
3.38852
3.90574
4.35317
4.70811
4.96651
5.13441
5.22857
5.26275
5.24456
5.17333
4.99533
4.68418
4.26501
3.80456
3.35547
2.94905
2.59121
2.27233
1.99064
1.75752
1.58371
1.45736
1.36297
1.25559
1.12395
1.01222
0.781006
1.47136
2.14512
2.70752
3.22396
3.7462
4.21937
4.607
4.89885
5.10042
5.22563
5.29257
5.30007
5.24735
5.08064
4.77954
4.3707
3.9184
3.47449
3.06984
2.71085
2.38919
2.10566
1.87047
1.6925
1.56177
1.46673
1.36279
1.23335
1.09317
0.72934
1.33845
2.04688
2.60948
3.10184
3.60244
4.08917
4.50521
4.82726
5.05979
5.21492
5.31097
5.34281
5.30682
5.15134
4.86145
4.46428
4.02197
3.58485
3.18337
2.82438
2.502
2.21798
1.98214
1.80162
1.66824
1.57383
1.474
1.34839
1.18118
0.768307
1.18136
1.96
2.53464
3.01068
3.47981
3.96562
4.403
4.75358
5.01449
5.19787
5.32086
5.3743
5.35395
5.20992
4.93236
4.54802
4.11686
3.68775
3.29063
2.93296
2.61163
2.32861
2.09355
1.91222
1.77813
1.68567
1.59036
1.46872
1.27688
0.87456
1.06479
1.85923
2.46899
2.93924
3.38452
3.85184
4.30264
4.67834
4.96646
5.17623
5.32196
5.39719
5.39177
5.25971
4.99547
4.62474
4.20537
3.7849
3.39308
3.03796
2.71917
2.43888
2.20594
2.02559
1.89294
1.80375
1.71315
1.5943
1.38147
1.02548
1.05082
1.72625
2.39893
2.8782
3.30824
3.75107
4.20651
4.60328
4.91735
5.15227
5.32031
5.41529
5.4245
5.30509
5.05497
4.69817
4.2906
3.87885
3.49285
3.14133
2.82645
2.55032
2.32082
2.14334
2.01454
1.92987
1.84404
1.72618
1.49691
1.23321
1.16522
1.57276
2.31171
2.82039
3.24466
3.6678
4.11724
4.53068
4.86914
5.12879
5.31869
5.43323
5.45769
5.35183
5.11639
4.77334
4.37688
3.97326
3.59315
3.24589
2.936
2.66512
2.44038
2.26758
2.14503
2.06629
1.98524
1.86813
1.62381
1.47863
1.35902
1.4877
2.20261
2.76
3.18931
3.59989
4.037
4.46335
4.82466
5.10941
5.32024
5.45745
5.49868
5.40766
5.18731
4.85731
4.47043
4.07457
3.69907
3.35597
3.05145
2.78669
2.56788
2.40147
2.28742
2.21622
2.1399
2.01989
1.76206
1.73548
1.60187
1.50063
2.07963
2.69205
3.13922
3.54449
3.9684
4.40474
4.78789
5.09835
5.33588
5.49753
5.55794
5.48348
5.2786
4.96044
4.58005
4.19076
3.8184
3.4783
3.17837
2.92062
2.70837
2.54977
2.44628
2.38426
2.31256
2.18587
1.91259
2.02022
1.87544
1.67197
1.97452
2.61465
3.09273
3.50034
3.91578
4.35921
4.76451
5.10016
5.37845
5.56768
5.65095
5.59536
5.40668
5.09853
4.72435
4.33654
3.96381
3.62381
3.32661
3.07547
2.86968
2.72001
2.62881
2.57751
2.50978
2.37269
2.08081
2.34591
2.18009
1.91036
1.93132
2.53237
3.04959
3.46782
3.88255
4.33257
4.7603
5.14583
5.46527
5.69002
5.80234
5.76834
5.59781
5.29882
4.92744
4.53522
4.15614
3.81093
3.51362
3.26575
3.0646
2.92467
2.84728
2.80757
2.74185
2.58864
2.27494
2.72781
2.52559
2.19559
1.96761
2.45632
3.01154
3.44922
3.87118
4.3317
4.81453
5.25903
5.62953
5.90131
6.05252
6.04605
5.89702
5.60637
5.23202
4.82673
4.43273
4.07459
3.76906
3.51737
3.31678
3.18637
3.12362
3.0944
3.02526
2.84433
2.49367
3.18809
2.9291
2.52533
2.10221
2.40243
2.98384
3.44912
3.90963
4.42324
4.97443
5.48874
5.93157
6.26741
6.47458
6.50887
6.38735
6.10273
5.71852
5.28964
4.86617
4.47936
4.15018
3.88121
3.67875
3.55202
3.49985
3.474
3.3883
3.15815
2.74687
3.76523
3.42217
2.92022
2.30857
2.38399
2.97735
3.51308
4.07126
4.67544
5.31873
5.93654
6.48612
6.9206
7.21442
7.31557
7.23414
6.95823
6.55697
6.08586
5.60692
5.16138
4.7878
4.48712
4.26217
4.12192
4.0596
4.01389
3.88155
3.5627
3.05292
4.53178
4.06646
3.41549
2.59715
2.44125
3.05845
3.72903
4.44235
5.22719
6.0355
6.81978
7.54607
8.14416
8.58509
8.80927
8.80191
8.55355
8.13188
7.59928
7.03297
6.48917
6.01319
5.62153
5.3184
5.1102
4.97581
4.84872
4.60225
4.11972
3.44529
5.6415
5.01576
4.12085
3.03818
2.67356
3.3683
4.27231
5.27151
6.40186
7.5499
8.66146
9.70011
10.592
11.3084
11.7881
11.9515
11.8054
11.3917
10.763
10.0209
9.26464
8.56219
7.94472
7.41465
6.98004
6.62253
6.26317
5.75325
4.96
3.99563
7.48713
6.57798
5.32889
3.90767
3.35224
4.26721
5.64169
7.21048
9.00626
10.8245
12.5774
14.2363
15.6966
16.9458
17.9142
18.4098
18.4561
18.0815
17.3113
16.2639
15.0893
13.9087
12.7747
11.7055
10.7191
9.80174
8.87504
7.79292
6.40391
4.90958
10.841
9.57576
7.91985
6.09467
5.4816
6.95531
9.32492
12.0293
15.0199
18.0563
20.9084
23.6019
25.9792
28.0687
29.7918
30.8211
31.1958
30.9464
30.001
28.4901
26.6179
24.5907
22.491
20.3474
18.2197
16.1258
14.0207
11.7897
9.29598
6.82949
17.8452
16.2695
14.3834
12.5659
12.3039
14.9589
19.1307
23.662
28.3491
33.0368
37.2702
41.1783
44.5534
47.4254
49.785
51.2524
51.9327
51.7883
50.6282
48.573
45.8316
42.6882
39.2851
35.6582
31.8817
28.012
24.0908
20.0781
15.8751
11.8323
30.28
29.2112
28.4132
28.2026
29.5915
33.7255
39.4227
45.0967
50.6587
55.9995
60.6772
64.7897
68.1275
70.6532
72.0933
72.4876
72.1889
70.9078
68.7142
65.732
62.1561
58.2059
54.1735
50.195
46.1576
42.0365
37.8047
33.418
28.8095
24.1476
37.7178
38.3014
39.4434
41.3314
44.6012
49.0339
53.2176
57.081
61.0136
64.7663
68.0065
70.6001
72.3196
72.9882
71.7882
69.4398
66.885
63.6672
60.1619
56.5932
53.1594
49.9618
47.1024
44.7118
42.8377
41.402
40.2653
39.2512
38.198
37.0279
6.67856
9.8725
12.0073
13.8584
15.3396
16.391
16.9644
17.0875
16.8132
16.2356
15.4223
14.4745
13.4151
12.2993
11.047
9.52653
7.78273
6.05084
4.51959
3.24448
2.18814
1.35378
1.25201
1.15944
1.0299
0.874692
0.7519
0.764339
0.964099
1.17163
4.39754
5.53796
6.43135
7.21424
7.85121
8.32036
8.5924
8.67118
8.57266
8.32798
7.97113
7.53417
7.04005
6.49731
5.86517
5.08421
4.26114
3.49059
2.82249
2.23361
1.67062
1.13895
0.715892
0.550393
0.477755
0.429715
0.421334
0.441298
0.494388
0.558943
4.07803
5.03434
5.75223
6.32318
6.76724
7.08858
7.27556
7.33102
7.26108
7.08137
6.81335
6.4826
6.10516
5.68752
5.18308
4.55202
3.87797
3.26163
2.7273
2.23683
1.76178
1.27485
0.84217
0.623561
0.528987
0.479162
0.456522
0.450771
0.483825
0.564935
3.89519
4.78415
5.47171
5.99192
6.38361
6.66539
6.83629
6.9007
6.86278
6.7286
6.51221
6.24015
5.92225
5.56873
5.12018
4.54305
3.91624
3.34042
2.83773
2.37765
1.92561
1.44797
1.00712
0.75334
0.631434
0.570055
0.535144
0.514401
0.537589
0.632664
3.69843
4.5221
5.20772
5.72455
6.11659
6.40567
6.59462
6.68753
6.68959
6.60016
6.42626
6.20474
5.93862
5.62551
5.20869
4.65832
4.05186
3.48897
2.99309
2.54073
2.098
1.62546
1.17709
0.894133
0.74569
0.669217
0.624727
0.593493
0.612105
0.721235
3.40732
4.19806
4.89488
5.43147
5.85022
6.17207
6.39961
6.53505
6.58222
6.54011
6.41512
6.23566
6.00971
5.73087
5.3365
4.8016
4.2071
3.64987
3.15465
2.70413
2.26555
1.79839
1.34589
1.03933
0.866016
0.772234
0.717007
0.676766
0.691303
0.814365
2.93949
3.78611
4.51672
5.09448
5.56071
5.93062
6.20894
6.3955
6.4919
6.49982
6.42253
6.28419
6.09526
5.84474
5.46679
4.94431
4.36019
3.80756
3.3122
2.86213
2.42558
1.96387
1.5113
1.18709
0.990667
0.878607
0.811598
0.762182
0.770849
0.903728
2.39537
3.27407
4.08897
4.72652
5.25003
5.67752
6.01202
6.25385
6.40228
6.45943
6.42925
6.33192
6.17794
5.95184
5.58761
5.07755
4.50496
3.95823
3.46348
3.01341
2.57823
2.12207
1.67274
1.33654
1.11958
0.988857
0.909241
0.850366
0.850277
0.984774
1.91584
2.80907
3.65728
4.35502
4.93319
5.41754
5.80929
6.10667
6.3074
6.41264
6.42996
6.37176
6.2508
6.04665
5.69553
5.19982
4.64106
4.10208
3.60912
3.15876
2.72434
2.27434
1.8307
1.48729
1.25318
1.10433
1.01138
0.943008
0.930372
1.0564
1.53445
2.41848
3.28646
4.01056
4.62841
5.15966
5.60471
5.95499
6.20645
6.35869
6.41953
6.40133
6.31178
6.12824
5.79115
5.31277
4.77053
4.2411
3.7507
3.29987
2.86582
2.42226
1.98642
1.63967
1.39224
1.22691
1.12
1.04208
1.01388
1.12117
1.24189
2.1037
2.97803
3.71898
4.35189
4.91352
5.40279
5.80178
6.10095
6.29829
6.40109
6.42141
6.36161
6.19847
5.8776
5.42009
4.89687
4.37811
3.89058
3.43903
3.00508
2.56785
2.14162
1.79469
1.53795
1.35845
1.23757
1.14934
1.10374
1.18323
1.0305
1.8433
2.72261
3.47216
4.10996
4.6876
5.20912
5.65061
5.99365
6.23394
6.37762
6.43444
6.40313
6.26132
5.95986
5.52705
5.02456
4.51679
4.03172
3.57907
3.14498
2.71397
2.29841
1.95399
1.69193
1.50092
1.36672
1.26672
1.20238
1.24671
0.902227
1.60926
2.50816
3.26359
3.90178
4.4852
5.02991
5.50565
5.88911
6.17003
6.35342
6.44446
6.44111
6.32274
6.04468
5.64011
5.15914
4.66165
4.17799
3.72349
3.28902
2.86406
2.45958
2.12011
1.85653
1.6568
1.51056
1.39661
1.31142
1.31583
0.852309
1.39464
2.31565
3.08591
3.72442
4.30581
4.86643
5.37258
5.79201
6.11139
6.33242
6.45662
6.48307
6.39085
6.14074
5.76726
5.30755
4.81862
4.33451
3.87686
3.4416
3.02246
2.62894
2.29688
2.03508
1.82918
1.67161
1.54169
1.43387
1.39289
0.892659
1.24583
2.12731
2.9277
3.57379
4.15388
4.7198
5.25035
5.70406
6.06045
6.31773
6.47866
6.53891
6.47621
6.25921
5.91883
5.47897
4.99577
4.50856
4.04573
3.60868
3.19479
2.81189
2.48962
2.23225
2.02234
1.85329
1.70493
1.57108
1.48057
1.02887
1.20933
1.94416
2.78025
3.44433
4.0274
4.59282
5.14326
5.62798
6.02093
6.31367
6.52158
6.62199
6.59302
6.41467
6.1086
5.68612
5.20484
4.71096
4.23984
3.79887
3.38967
3.01654
2.70618
2.45483
2.24216
2.06074
1.89008
1.72494
1.58713
1.23084
1.28799
1.79463
2.64058
3.33151
3.92368
4.4911
5.05575
5.56945
5.99946
6.34018
6.60176
6.74952
6.76184
6.62709
6.35596
5.94771
5.46353
4.95808
4.47419
4.02705
3.62003
3.25617
2.95859
2.71298
2.49712
2.30108
2.10257
1.89835
1.71183
1.48363
1.46609
1.72536
2.51194
3.23271
3.84059
4.41493
4.99203
5.53533
6.00401
6.42189
6.74218
6.94568
7.01212
6.92443
6.68955
6.29227
5.79951
5.2758
4.77465
4.31662
3.90761
3.5547
3.26632
3.02253
2.79998
2.58464
2.35032
2.09617
1.8541
1.77188
1.70754
1.75486
2.40657
3.14737
3.77748
4.36495
4.95698
5.53362
6.09139
6.58253
6.97531
7.24816
7.38428
7.34968
7.15402
6.76504
6.25718
5.70951
5.18472
4.70767
4.29185
3.94829
3.66051
3.4085
3.17049
2.92686
2.64473
2.32529
2.02115
2.11867
2.00412
1.91526
2.34327
3.07778
3.73541
4.34333
4.96228
5.6319
6.28693
6.86822
7.35051
7.71498
7.94052
7.9725
7.8221
7.44052
6.9153
6.33812
5.77902
5.27419
4.85099
4.49802
4.19205
3.9113
3.64039
3.35186
3.00467
2.59456
2.21809
2.54671
2.35813
2.14422
2.32501
3.02951
3.71855
4.37803
5.09919
5.88141
6.64886
7.3484
7.95197
8.44088
8.78445
8.90966
8.81708
8.45213
7.91292
7.30197
6.69757
6.16428
5.70496
5.30611
4.94422
4.59816
4.26221
3.89868
3.4536
2.92006
2.44865
3.08943
2.794
2.45443
2.39719
3.01468
3.76301
4.55067
5.42455
6.35786
7.2803
8.14827
8.92536
9.58965
10.099
10.365
10.361
10.0384
9.50484
8.86626
8.22162
7.61301
7.0553
6.54426
6.05484
5.58334
5.12525
4.63348
4.03607
3.33043
2.72626
3.80335
3.35719
2.85274
2.58509
3.09895
3.96306
4.94416
6.04816
7.22045
8.37958
9.5025
10.5353
11.4582
12.2145
12.7111
12.8615
12.6386
12.1706
11.5188
10.7714
10.0025
9.23772
8.49625
7.77065
7.06896
6.38815
5.67388
4.83333
3.88079
3.07696
4.79929
4.14756
3.42471
2.93839
3.406
4.45452
5.74026
7.19969
8.77631
10.3412
11.8612
13.2814
14.5991
15.7373
16.6299
17.06
17.0551
16.6704
15.9508
14.9985
13.9297
12.8087
11.6703
10.5311
9.417
8.3371
7.23858
6.00373
4.66767
3.56709
6.32735
5.40475
4.3882
3.66466
4.13454
5.54471
7.33957
9.38791
11.6395
13.8638
16.0296
18.0906
20.0163
21.7365
23.2175
24.0354
24.2612
23.9659
23.1434
21.8876
20.3646
18.6832
16.9018
15.0737
13.2594
11.4933
9.73679
7.86621
5.92381
4.3468
8.98172
7.72707
6.30979
5.32956
5.94226
7.99101
10.6743
13.7053
16.9986
20.2499
23.3613
26.3214
29.0747
31.5399
33.7622
35.0407
35.5148
35.2996
34.299
32.6107
30.4529
27.9867
25.2926
22.4548
19.5785
16.7468
13.9547
11.0858
8.19361
5.84056
14.0518
12.4776
10.6335
9.5084
10.5071
13.6293
17.7256
22.2097
26.8887
31.4943
35.7569
39.7541
43.4084
46.5996
49.453
50.9833
51.4915
51.1016
49.6904
47.3892
44.4578
41.117
37.4558
33.5422
29.4718
25.3393
21.1982
16.9726
12.7534
9.19162
23.645
22.0992
20.2785
19.4891
21.3012
25.7876
31.5319
37.5255
43.4654
49.2452
54.3962
59.0967
63.2439
66.6063
69.1857
69.8827
69.2439
67.357
64.6661
61.3442
57.6051
53.6602
49.6487
45.5789
41.3817
36.986
32.3371
27.3271
21.9744
17.1388
36.6802
36.0303
36.0013
37.061
40.1761
45.5395
51.9054
58.2225
64.3072
70.0869
75.0847
79.3354
82.6612
84.5857
84.4837
81.9687
78.7558
74.8631
70.7243
66.5053
62.4003
58.5332
55.0275
51.8834
48.9457
46.0152
42.8794
39.3424
35.3601
31.6229
41.5218
42.2796
43.764
46.4347
50.6206
55.8714
61.2175
66.4007
71.523
76.3104
80.2639
83.0611
84.44
83.7965
80.5907
75.4168
70.2074
64.8026
59.7037
55.1245
51.2609
48.1118
45.6898
44.0037
42.9914
42.4831
42.228
41.9474
41.5057
41.145
9.27777
13.2933
15.8228
18.0892
20.0322
21.5005
22.3765
22.6598
22.3873
21.6578
20.5334
19.1352
17.4693
15.6104
13.4455
10.8998
8.28218
6.14797
4.69171
3.65246
2.55557
1.44711
0.285721
0.257607
0.227554
0.197788
0.834271
1.01377
1.27135
1.40428
5.74204
7.07615
8.0613
8.94586
9.70042
10.2732
10.6187
10.7352
10.6352
10.3452
9.89756
9.32075
8.64218
7.85101
6.89283
5.77362
4.72707
3.9408
3.34849
2.72685
1.96311
1.16243
0.49716
0.317977
0.319851
0.342182
0.417766
0.486948
0.58626
0.67508
5.29049
6.37392
7.21523
7.88104
8.38233
8.72631
8.90893
8.94251
8.83345
8.59734
8.25284
7.82163
7.32066
6.74018
6.01371
5.15687
4.36652
3.78397
3.29874
2.71597
1.98684
1.2076
0.574655
0.378404
0.374585
0.387767
0.416696
0.467867
0.567675
0.708986
5.01455
6.05924
6.92832
7.5729
8.01017
8.2821
8.4106
8.42095
8.31952
8.11593
7.82098
7.45831
7.03268
6.5475
5.91262
5.14642
4.43404
3.8978
3.42581
2.8535
2.12889
1.31458
0.673701
0.454201
0.441414
0.450787
0.469427
0.514874
0.624502
0.822395
4.71871
5.75686
6.67124
7.34381
7.78984
8.05612
8.18234
8.2023
8.12596
7.95652
7.69933
7.39083
7.03106
6.59185
6.00188
5.27738
4.59749
4.07256
3.59642
3.02485
2.30514
1.4728
0.81506
0.55177
0.520996
0.525971
0.539371
0.582052
0.701703
0.956999
4.36783
5.40599
6.36325
7.08133
7.5604
7.8568
8.0136
8.06657
8.03022
7.89979
7.69899
7.42739
7.10659
6.70444
6.14001
5.43992
4.7812
4.26157
3.78112
3.21256
2.50022
1.67156
0.986321
0.675531
0.612967
0.608396
0.615904
0.655264
0.78246
1.08811
3.95904
4.98763
5.98602
6.7534
7.28461
7.63274
7.84218
7.94561
7.96047
7.88134
7.72443
7.49409
7.20949
6.8331
6.28513
5.60495
4.96714
4.45429
3.9723
3.4091
2.70823
1.88789
1.18109
0.822856
0.719903
0.697748
0.696692
0.730583
0.859623
1.20348
3.45473
4.49788
5.54154
6.36213
6.95918
7.37472
7.65092
7.81735
7.88978
7.86678
7.75438
7.56643
7.31522
6.95845
6.42414
5.76631
5.1536
4.65069
4.16881
3.61201
2.92472
2.11878
1.3976
0.992253
0.84409
0.796446
0.781968
0.807804
0.932807
1.2973
2.93144
3.95846
5.04473
5.92588
6.59571
7.08852
7.43934
7.67581
7.81061
7.84462
7.78049
7.63397
7.41411
7.07435
6.55539
5.92653
5.34482
4.8544
4.37396
3.8215
3.1482
2.36079
1.63252
1.18307
0.986332
0.907905
0.873909
0.888231
1.00353
1.37056
2.4623
3.45466
4.54894
5.47648
6.2154
6.78537
7.21396
7.52253
7.72183
7.813
7.79901
7.69339
7.5038
7.1814
6.68314
6.09228
5.54743
5.07074
4.59012
4.03939
3.3793
2.61217
1.88371
1.39521
1.14803
1.03426
0.97622
0.973992
1.07463
1.42796
2.05576
3.01078
4.09779
5.0524
5.84192
6.48015
6.98331
7.36255
7.62614
7.77392
7.81048
7.74566
7.58641
7.28466
6.81541
6.27219
5.76937
5.3059
4.82197
4.26936
3.62035
2.87341
2.15171
1.62963
1.33146
1.17805
1.09326
1.06709
1.14931
1.47606
1.71372
2.62702
3.70157
4.6733
5.49471
6.18774
6.75686
7.20312
7.52876
7.73262
7.81918
7.79491
7.66777
7.39292
6.96344
6.47931
6.01985
5.56712
5.0752
4.51701
3.87577
3.1481
2.43956
1.88864
1.53981
1.3428
1.22745
1.17129
1.23037
1.52181
1.44168
2.29284
3.35353
4.33653
5.18723
5.92084
6.54496
7.0526
7.43842
7.697
7.83124
7.84952
7.75728
7.51872
7.14151
6.72775
6.30927
5.86295
5.3572
4.7899
4.15233
3.44425
2.75208
2.17597
1.77739
1.53314
1.38214
1.29024
1.31893
1.57044
1.23803
1.99873
3.04804
4.04031
4.91238
5.67796
6.35409
6.91837
7.35963
7.6688
7.85483
7.92149
7.86912
7.67867
7.36752
7.03071
6.65038
6.20431
5.67838
5.09808
4.4603
3.77583
3.09773
2.49739
2.04981
1.75494
1.56215
1.42834
1.42114
1.6266
1.11559
1.75375
2.77848
3.78275
4.67305
5.46545
6.18266
6.79905
7.2943
7.65406
7.90278
8.02566
8.02405
7.89409
7.66394
7.40838
7.06007
6.6062
6.05452
5.45619
4.81585
4.15809
3.48892
2.86193
2.36477
2.01559
1.77373
1.59151
1.53587
1.69498
1.08042
1.5848
2.54318
3.55945
4.46967
5.28607
6.03619
6.70116
7.24938
7.66286
7.99368
8.1818
8.24917
8.19529
8.05946
7.88659
7.56166
7.09143
6.50934
5.8875
5.24687
4.61279
3.94343
3.28317
2.73319
2.3249
2.02489
1.78314
1.66539
1.78068
1.15343
1.51577
2.35145
3.36836
4.30063
5.14149
5.92015
6.63163
7.23339
7.74349
8.15484
8.41965
8.57715
8.62327
8.59362
8.50101
8.1908
7.69447
7.07831
6.43046
5.80435
5.17397
4.48679
3.78095
3.17082
2.69609
2.3262
2.01086
1.81491
1.88526
1.33841
1.54285
2.22006
3.21132
4.16542
5.03326
5.843
6.59905
7.28442
7.91499
8.4208
8.78114
9.05406
9.22955
9.32233
9.30352
9.0007
8.46975
7.81618
7.15313
6.54128
5.88954
5.15404
4.38478
3.70106
3.14748
2.69219
2.28474
1.99067
2.00875
1.61269
1.68752
2.16066
3.09299
4.06515
4.96358
5.80946
6.63545
7.47742
8.22209
8.84031
9.32639
9.74906
10.0866
10.3229
10.3726
10.0722
9.50243
8.81804
8.17598
7.54249
6.8274
6.00105
5.13996
4.35954
3.70671
3.14436
2.61902
2.20527
2.15734
1.96732
1.91935
2.18209
3.02118
4.00311
4.93687
5.85821
6.84028
7.83615
8.7246
9.49054
10.1447
10.7628
11.3025
11.7086
11.8271
11.5346
10.9282
10.2588
9.63977
8.9243
8.07704
7.11304
6.11642
5.20108
4.41665
3.71509
3.03589
2.47475
2.34383
2.41796
2.2578
2.33209
3.00258
3.98693
5.00495
6.09557
7.26755
8.44616
9.51905
10.4905
11.3723
12.2466
13.0407
13.6544
13.8531
13.6006
12.9881
12.3973
11.717
10.8323
9.78491
8.6191
7.42302
6.31436
5.34649
4.45633
3.5696
2.82194
2.58368
3.00622
2.71047
2.59483
3.09487
4.09641
5.27743
6.59791
8.00915
9.43402
10.7688
12.0299
13.2232
14.434
15.5513
16.4351
16.7478
16.6274
16.0975
15.5107
14.6339
13.503
12.1742
10.7172
9.23133
7.8414
6.60898
5.45554
4.28487
3.28253
2.90482
3.80535
3.33215
3.02499
3.4071
4.46913
5.87389
7.48612
9.23589
11.0242
12.7447
14.4141
16.0342
17.686
19.2181
20.4754
20.9861
21.0645
20.6252
19.8691
18.7421
17.287
15.5767
13.7126
11.8114
10.0131
8.39452
6.86249
5.29418
3.93184
3.36171
4.96789
4.26995
3.75066
4.00362
5.23198
6.98581
9.03916
11.2637
13.6046
15.8837
18.1257
20.3213
22.5408
24.6017
26.3953
27.1165
27.2696
26.8483
25.918
24.4873
22.629
20.4361
18.0382
15.5701
13.1941
11.0211
8.93433
6.80216
4.9221
4.07695
6.82315
5.84667
5.07061
5.23768
6.74785
9.04797
11.7644
14.7111
17.8157
20.8802
23.8692
26.7915
29.7076
32.3814
34.7529
35.5777
35.7132
35.2006
34.0183
32.2104
29.8848
27.1646
24.1631
21.0185
17.9076
14.9599
12.0862
9.18196
6.5653
5.31469
10.0437
8.77376
7.72073
7.85549
9.82002
12.9432
16.6384
20.5841
24.6606
28.7243
32.5922
36.3316
39.9817
43.2276
46.0578
46.6526
46.3677
45.0577
43.1834
40.7866
37.9995
34.8924
31.5351
27.9719
24.2856
20.5845
16.8768
13.0676
9.50469
7.66647
15.8059
14.3732
13.2113
13.4542
16.0438
20.2455
25.1551
30.2571
35.3647
40.4477
45.1444
49.5946
53.7969
57.2974
60.0137
59.2357
57.3365
54.765
51.9894
48.9656
45.8161
42.5604
39.2087
35.6874
31.9575
28.005
23.8112
19.2984
14.8676
12.3235
25.0648
23.9556
23.4278
24.251
27.4941
32.6701
38.5904
44.5578
50.3574
56.0341
61.1653
65.8521
70.0201
72.8958
73.9333
70.0513
65.9408
61.6937
57.8056
54.1547
50.8017
47.7213
44.8869
42.0808
39.1989
36.0307
32.4037
28.1719
23.7472
20.9073
35.6062
35.4388
36.2471
38.6149
42.8434
48.3829
54.4568
60.4675
66.2583
71.7722
76.6318
80.7105
83.7442
84.2645
81.9343
74.4246
67.8885
61.8336
56.9422
52.8131
49.4644
46.8247
44.8008
43.3021
42.0529
40.7752
39.147
36.9394
34.3905
32.7148
38.3092
39.3091
41.1888
44.3862
48.9919
54.5242
60.3138
66.0989
71.7638
76.9799
81.2924
84.1307
85.2619
83.0032
77.4286
67.4029
59.349
52.3414
46.8878
42.6207
39.4969
37.3682
36.1351
35.675
35.8389
36.4382
37.1516
37.6736
37.9767
38.6685
12.5629
17.2963
20.1287
22.5424
24.7307
26.4581
27.5325
27.9123
27.6024
26.6934
25.2261
23.334
20.9915
18.2915
15.0729
11.4702
8.39227
7.01806
7.22472
7.0369
5.24704
3.14023
1.45679
0.257243
0.972052
0.901434
1.04903
1.3075
1.58272
1.64011
7.45716
8.85736
9.85816
10.7393
11.5422
12.1775
12.5718
12.7109
12.6018
12.2632
11.7289
11.0161
10.1536
9.09096
7.7663
6.3317
5.28766
4.96491
4.92586
4.41458
3.40915
2.27153
1.19233
0.44707
0.443769
0.449518
0.495887
0.589644
0.740712
0.976623
6.91856
7.92493