/*--------------------------------*- C++ -*----------------------------------*\
| =========                 |                                                 |
| \\      /  F ield         | OpenFOAM: The Open Source CFD Toolbox           |
|  \\    /   O peration     | Version:  5.0                                   |
|   \\  /    A nd           | Web:      www.OpenFOAM.org                      |
|    \\/     M anipulation  |                                                 |
\*---------------------------------------------------------------------------*/
FoamFile
{
    version     2.0;
    format      ascii;
    class       volScalarField;
    location    "900/air";
    object      k;
}
// * * * * * * * * * * * * * * * * * * * * * * * * * * * * * * * * * * * * * //

dimensions      [0 2 -2 0 0 0 0];

internalField   nonuniform List<scalar> 
243000
(
0.0601949
0.074523
0.0810583
0.0851379
0.0868959
0.0867043
0.0849578
0.0820888
0.078496
0.0745661
0.0705952
0.0670267
0.064124
0.0622362
0.061219
0.0604307
0.0591724
0.0572608
0.0548353
0.0521016
0.0492164
0.0462939
0.0435146
0.0410174
0.038305
0.0350771
0.0307625
0.0250217
0.0204423
0.0237444
0.0921088
0.112997
0.122759
0.129049
0.132438
0.133428
0.132382
0.129751
0.125966
0.12152
0.116862
0.112585
0.108964
0.106291
0.103994
0.100976
0.0966533
0.0914248
0.0858818
0.0803884
0.0751076
0.070104
0.0656415
0.062048
0.0586033
0.0546841
0.0497497
0.0427842
0.0357916
0.0372545
0.107554
0.131463
0.144394
0.153023
0.158199
0.160507
0.160277
0.158075
0.154413
0.149907
0.145061
0.14054
0.136637
0.133612
0.13065
0.126387
0.120221
0.112901
0.105286
0.0978992
0.0909573
0.0845026
0.0787329
0.0739067
0.0695096
0.0648986
0.0594839
0.052417
0.0448704
0.0435202
0.111801
0.140368
0.157094
0.168344
0.175778
0.179937
0.181123
0.179908
0.176948
0.172952
0.168472
0.164231
0.160501
0.157505
0.154221
0.149104
0.14151
0.132491
0.123112
0.114053
0.105599
0.0977955
0.0907887
0.0847667
0.0792691
0.0737969
0.0677258
0.0603011
0.0521832
0.048718
0.108102
0.140009
0.162833
0.177473
0.187394
0.19373
0.196716
0.19687
0.194978
0.191858
0.188099
0.184464
0.181188
0.178443
0.175031
0.169306
0.160626
0.150258
0.139433
0.128963
0.1192
0.110204
0.102083
0.0949648
0.0883811
0.0819921
0.0752038
0.0672927
0.0585958
0.0535364
0.100647
0.134845
0.162368
0.181445
0.194542
0.203221
0.208229
0.210043
0.20945
0.20744
0.204628
0.201812
0.199175
0.196824
0.193411
0.187248
0.177756
0.166339
0.154351
0.142715
0.131844
0.121818
0.112715
0.104612
0.0970461
0.0897429
0.0822325
0.073791
0.0645136
0.0580978
0.0934614
0.127149
0.15811
0.181055
0.197952
0.209341
0.216502
0.220153
0.221044
0.220286
0.218567
0.216713
0.214835
0.212982
0.209659
0.203192
0.193104
0.180886
0.167987
0.155405
0.143608
0.1327
0.122739
0.113762
0.105324
0.0971532
0.0889543
0.0799816
0.0701347
0.0624375
0.0856909
0.119963
0.151442
0.177966
0.197989
0.212722
0.22214
0.227729
0.230248
0.230842
0.230308
0.229506
0.22847
0.227187
0.224021
0.217361
0.206862
0.194057
0.180453
0.167118
0.154558
0.142903
0.132196
0.122454
0.113246
0.104275
0.0954379
0.0859579
0.0755871
0.0666393
0.0776517
0.112889
0.144521
0.172841
0.195802
0.213432
0.225632
0.233183
0.237412
0.239454
0.240163
0.24047
0.240326
0.23966
0.236703
0.229953
0.219202
0.205989
0.191865
0.177942
0.164761
0.152478
0.141134
0.130726
0.120841
0.111141
0.101722
0.0917714
0.0809258
0.0707782
0.0704355
0.105569
0.138098
0.166645
0.191851
0.212138
0.22708
0.236812
0.242827
0.246379
0.248379
0.249834
0.250615
0.250586
0.247883
0.241136
0.230267
0.216813
0.202325
0.187959
0.174281
0.161479
0.149596
0.138612
0.128136
0.117781
0.107835
0.0974649
0.0861467
0.0749096
0.0656022
0.0975416
0.131831
0.160819
0.186604
0.209287
0.226638
0.238921
0.24672
0.251836
0.255166
0.257783
0.259505
0.260125
0.257708
0.251052
0.240175
0.226629
0.211921
0.197237
0.183175
0.16995
0.15762
0.146146
0.135158
0.124222
0.113805
0.103061
0.0913147
0.0791113
0.0653667
0.0890225
0.125359
0.155239
0.181463
0.205161
0.224843
0.239449
0.249298
0.256005
0.260698
0.26448
0.26714
0.26841
0.266308
0.259819
0.249036
0.235518
0.220725
0.205838
0.191491
0.177933
0.16524
0.153359
0.141936
0.130488
0.119654
0.10856
0.0965291
0.083464
0.0712669
0.0809711
0.118227
0.14968
0.176443
0.20033
0.221903
0.238699
0.250736
0.259023
0.265119
0.270066
0.273646
0.275558
0.273796
0.267543
0.256944
0.243551
0.228798
0.213813
0.19927
0.185461
0.172481
0.160272
0.14849
0.136597
0.1254
0.113984
0.101626
0.087936
0.0788852
0.0758788
0.110177
0.143797
0.171498
0.19575
0.218029
0.236961
0.250991
0.261096
0.268545
0.274664
0.279135
0.28167
0.280272
0.274315
0.263982
0.250802
0.236177
0.221206
0.20655
0.192564
0.179374
0.166907
0.154837
0.142572
0.131057
0.119346
0.106688
0.0924482
0.0876506
0.0784167
0.101406
0.137121
0.166505
0.191264
0.213598
0.2344
0.250347
0.262313
0.271104
0.278364
0.2837
0.28684
0.285826
0.280219
0.270223
0.257333
0.242913
0.228042
0.213364
0.199277
0.185949
0.173291
0.160998
0.148449
0.136643
0.124678
0.111743
0.0970849
0.0974752
0.0865357
0.0935753
0.129504
0.161161
0.186849
0.209404
0.231179
0.248995
0.262672
0.272929
0.281275
0.287416
0.291147
0.290536
0.285327
0.275731
0.263202
0.249058
0.234354
0.219735
0.205634
0.192237
0.179455
0.166997
0.154234
0.142165
0.129991
0.116816
0.101899
0.10795
0.0959194
0.0893024
0.121045
0.155228
0.182464
0.205331
0.227425
0.247056
0.262327
0.274053
0.283469
0.290371
0.294655
0.294471
0.289705
0.280566
0.268462
0.254659
0.240186
0.225697
0.211656
0.198269
0.185428
0.172856
0.159951
0.14766
0.135303
0.121913
0.106819
0.118883
0.106071
0.0925654
0.112638
0.148642
0.177963
0.201382
0.223321
0.24464
0.261426
0.274485
0.285021
0.292626
0.297428
0.297691
0.293411
0.284786
0.273162
0.259766
0.245587
0.231292
0.217382
0.204073
0.191246
0.17863
0.165637
0.153154
0.140635
0.127037
0.111643
0.130233
0.116944
0.101212
0.106304
0.141531
0.173277
0.197589
0.219418
0.241839
0.260038
0.274294
0.28594
0.294223
0.299509
0.300249
0.296497
0.28844
0.277365
0.264436
0.250612
0.236578
0.222866
0.209697
0.196956
0.184367
0.171343
0.158686
0.14602
0.132223
0.116521
0.141934
0.128199
0.111148
0.103729
0.134308
0.168407
0.193928
0.215681
0.238708
0.258199
0.273572
0.286145
0.2952
0.300938
0.302176
0.299003
0.291579
0.281127
0.26873
0.255325
0.241613
0.228161
0.215198
0.202616
0.190129
0.177138
0.164319
0.151502
0.137506
0.121505
0.153922
0.139624
0.121495
0.105891
0.127733
0.16342
0.190396
0.212123
0.235246
0.255906
0.272321
0.285726
0.295455
0.301724
0.303496
0.30096
0.294243
0.28449
0.272702
0.259787
0.246465
0.233337
0.220642
0.208288
0.195985
0.183098
0.1701
0.157122
0.142914
0.126607
0.16615
0.15113
0.132117
0.112196
0.122839
0.158487
0.187007
0.20877
0.231392
0.25314
0.270498
0.28468
0.295031
0.301815
0.304188
0.302368
0.296442
0.287478
0.276392
0.264055
0.251204
0.238468
0.226099
0.214041
0.201996
0.189285
0.176093
0.162928
0.148477
0.131833
0.178528
0.162703
0.142912
0.120512
0.120293
0.153883
0.183758
0.205544
0.227499
0.249866
0.268017
0.282897
0.293826
0.301149
0.304145
0.303131
0.298103
0.290045
0.279781
0.268144
0.255865
0.243604
0.231636
0.219928
0.208195
0.195717
0.182343
0.168985
0.154228
0.137185
0.191023
0.174438
0.154434
0.129638
0.12017
0.14992
0.180683
0.202547
0.223976
0.246013
0.264612
0.280005
0.291458
0.299354
0.30302
0.302912
0.298911
0.29194
0.282662
0.27189
0.26033
0.248664
0.237195
0.225904
0.214519
0.202302
0.188859
0.175312
0.160197
0.142663
0.203914
0.187274
0.165647
0.13871
0.122328
0.147047
0.17811
0.200052
0.220989
0.242052
0.260022
0.275566
0.287332
0.295711
0.300053
0.300915
0.298099
0.292392
0.284376
0.274703
0.264078
0.253195
0.242362
0.231583
0.220596
0.208703
0.19563
0.182035
0.166566
0.148392
0.217564
0.199783
0.176531
0.147605
0.126203
0.145992
0.176586
0.198537
0.219099
0.239592
0.2565
0.270958
0.282154
0.290393
0.29529
0.297103
0.29573
0.29162
0.28522
0.277052
0.267668
0.257659
0.247404
0.237041
0.226483
0.215341
0.203227
0.18977
0.173878
0.154841
0.232273
0.213447
0.188652
0.1577
0.132525
0.148669
0.177896
0.20006
0.220493
0.240967
0.257354
0.271347
0.28248
0.290999
0.296604
0.299368
0.299344
0.296707
0.291775
0.284955
0.27671
0.267553
0.257855
0.247812
0.237436
0.226484
0.214475
0.200699
0.183956
0.163529
0.252487
0.232796
0.206909
0.174903
0.148398
0.162986
0.191074
0.213855
0.234717
0.255611
0.27215
0.286195
0.297521
0.306462
0.312813
0.316349
0.317314
0.315788
0.311892
0.305981
0.298468
0.289818
0.280358
0.270266
0.259568
0.248082
0.235359
0.220485
0.202083
0.179348
0.297451
0.280203
0.257942
0.231474
0.211018
0.225407
0.252273
0.275309
0.296062
0.316181
0.33244
0.346049
0.356782
0.365483
0.371712
0.375037
0.375889
0.374381
0.370485
0.36458
0.357063
0.348334
0.338658
0.328151
0.31657
0.30376
0.28955
0.273266
0.253622
0.22895
0.484552
0.479317
0.472374
0.46394
0.459948
0.470286
0.48638
0.497159
0.506257
0.514095
0.521128
0.527492
0.53166
0.536024
0.538991
0.539961
0.539605
0.53835
0.535853
0.53277
0.529189
0.525487
0.521748
0.517729
0.511125
0.501935
0.491919
0.481383
0.46976
0.453293
0.088896
0.112205
0.125397
0.134172
0.139306
0.141287
0.140504
0.137539
0.132977
0.127503
0.121583
0.115821
0.110432
0.105741
0.101277
0.0959087
0.0889284
0.0805564
0.0714695
0.0621616
0.0529758
0.0442431
0.0374048
0.032681
0.0294758
0.0270057
0.0257427
0.0233186
0.0246423
0.0302233
0.147361
0.179314
0.196657
0.207846
0.214422
0.216997
0.215952
0.211975
0.205778
0.198118
0.189469
0.180477
0.171081
0.161317
0.150081
0.136077
0.120606
0.105194
0.0916282
0.0798399
0.0695374
0.0602141
0.052859
0.0482061
0.0459809
0.0453265
0.0440342
0.0416951
0.0427293
0.0486154
0.181983
0.217751
0.241402
0.25851
0.270259
0.277012
0.278848
0.276451
0.270744
0.262651
0.25281
0.242009
0.230223
0.21752
0.202508
0.183612
0.162446
0.141738
0.123634
0.108301
0.0952812
0.083695
0.074148
0.0679433
0.0645893
0.0626757
0.0598257
0.0544343
0.0511478
0.0572856
0.196202
0.237762
0.266254
0.288845
0.306195
0.317976
0.323898
0.324283
0.320322
0.313085
0.303337
0.291978
0.279045
0.26466
0.247266
0.225116
0.199859
0.175225
0.153476
0.135152
0.119747
0.106163
0.0946802
0.086795
0.0822237
0.0788775
0.0741635
0.0663588
0.059996
0.0645856
0.192558
0.236929
0.275123
0.305722
0.32883
0.346081
0.356651
0.360598
0.359015
0.353341
0.344448
0.33332
0.320052
0.304789
0.285826
0.261341
0.233094
0.205374
0.18074
0.159954
0.142531
0.127254
0.11412
0.10461
0.0987883
0.0941836
0.08781
0.0779801
0.0691918
0.0721811
0.175305
0.226393
0.271231
0.310181
0.342106
0.364934
0.380428
0.388358
0.389574
0.385866
0.378316
0.367956
0.354931
0.339342
0.319351
0.293105
0.26272
0.232582
0.205638
0.18282
0.163696
0.146979
0.132459
0.121475
0.114369
0.108675
0.100902
0.0893315
0.0783492
0.0798284
0.150495
0.208808
0.261136
0.306808
0.34674
0.376983
0.397387
0.409467
0.413819
0.412292
0.406387
0.397178
0.384799
0.369305
0.348659
0.321155
0.289256
0.257285
0.228502
0.204006
0.183433
0.16547
0.14978
0.137503
0.129157
0.122483
0.113542
0.10052
0.0874892
0.0872577
0.126334
0.18881
0.247394
0.299617
0.345214
0.38318
0.408998
0.425277
0.432941
0.433761
0.429684
0.421882
0.410446
0.395367
0.374332
0.346016
0.313075
0.279842
0.249605
0.223737
0.201922
0.182863
0.166166
0.152788
0.14331
0.13576
0.125859
0.111677
0.0968079
0.0942886
0.106119
0.170232
0.233383
0.290369
0.340917
0.383982
0.416628
0.436756
0.447771
0.451145
0.448975
0.442753
0.432456
0.418019
0.396848
0.368086
0.334509
0.300487
0.269152
0.242178
0.219299
0.19927
0.181714
0.167428
0.156964
0.148659
0.137986
0.122909
0.106467
0.101004
0.0904151
0.15403
0.220081
0.280708
0.334824
0.381971
0.419822
0.444599
0.458996
0.465057
0.464872
0.460327
0.451304
0.437668
0.416593
0.387704
0.353846
0.319397
0.287296
0.25945
0.235661
0.214795
0.196534
0.181521
0.170235
0.16132
0.150056
0.134317
0.116549
0.107636
0.0797981
0.139901
0.207904
0.271281
0.327756
0.378124
0.41941
0.449528
0.467127
0.475966
0.47791
0.475061
0.467391
0.454673
0.433902
0.405167
0.371329
0.336705
0.304195
0.275657
0.251109
0.229544
0.210732
0.195166
0.183232
0.17387
0.16219
0.145984
0.127119
0.114434
0.074256
0.126681
0.196563
0.262063
0.320482
0.372982
0.417303
0.451251
0.472677
0.484292
0.488502
0.487343
0.481076
0.469363
0.449085
0.420744
0.387166
0.352603
0.319939
0.290903
0.26574
0.243633
0.224416
0.208458
0.196053
0.186419
0.174495
0.157973
0.138222
0.12185
0.0751083
0.11278
0.185436
0.252799
0.312977
0.366948
0.413848
0.450634
0.476178
0.490364
0.496978
0.497549
0.492694
0.482051
0.462433
0.434696
0.401582
0.367262
0.334625
0.305296
0.279656
0.257161
0.237678
0.221482
0.208789
0.199065
0.187066
0.170341
0.149826
0.130011
0.0821802
0.102619
0.17355
0.243163
0.305127
0.360571
0.409408
0.448784
0.477397
0.494595
0.503615
0.506046
0.502569
0.493038
0.474236
0.44728
0.414795
0.380862
0.348368
0.318945
0.292961
0.270224
0.250612
0.234318
0.221523
0.211892
0.199986
0.183146
0.161902
0.139054
0.0934074
0.100061
0.160342
0.232806
0.296821
0.3539
0.404242
0.445987
0.477026
0.497605
0.508694
0.513131
0.511013
0.502635
0.484789
0.45876
0.427033
0.393592
0.361328
0.331944
0.305766
0.282926
0.263318
0.247054
0.234343
0.224974
0.213342
0.196462
0.174347
0.149121
0.109686
0.106246
0.146991
0.221445
0.28804
0.346961
0.398645
0.44255
0.475848
0.499175
0.512537
0.519099
0.518352
0.511171
0.494411
0.469426
0.438549
0.405665
0.373691
0.344421
0.318218
0.29539
0.275907
0.259797
0.247345
0.238415
0.22723
0.210389
0.187474
0.160112
0.129553
0.120371
0.139047
0.209275
0.278824
0.339833
0.393042
0.438738
0.474096
0.499711
0.515541
0.524225
0.524951
0.51901
0.503455
0.479608
0.449642
0.41734
0.385743
0.356601
0.330475
0.30776
0.288519
0.272675
0.260651
0.252328
0.241766
0.22504
0.201192
0.171944
0.15159
0.138951
0.138164
0.197205
0.269259
0.332651
0.38754
0.434731
0.472033
0.499689
0.518093
0.528853
0.531251
0.52657
0.512343
0.489715
0.460696
0.428934
0.397771
0.368783
0.342771
0.320246
0.301341
0.285863
0.274418
0.266853
0.257096
0.240556
0.215673
0.184648
0.176466
0.160694
0.148922
0.187467
0.259589
0.32558
0.382264
0.430696
0.469934
0.499563
0.520426
0.533461
0.537756
0.534382
0.521616
0.500288
0.47223
0.441146
0.410287
0.381409
0.355474
0.333165
0.314642
0.299601
0.288872
0.282195
0.273416
0.257099
0.231244
0.19851
0.204433
0.185228
0.165826
0.182885
0.250359
0.318825
0.377378
0.427194
0.468087
0.49956
0.523182
0.538706
0.545158
0.543181
0.532029
0.512105
0.48509
0.454678
0.424019
0.39514
0.369169
0.347031
0.32884
0.314254
0.304364
0.298685
0.291028
0.274912
0.248025
0.213796
0.235536
0.212484
0.187044
0.183102
0.242339
0.312622
0.373077
0.424419
0.466841
0.500467
0.527384
0.545566
0.554461
0.554085
0.54474
0.526373
0.500504
0.470699
0.440119
0.411047
0.384849
0.362713
0.344676
0.3305
0.321509
0.316908
0.310422
0.294369
0.266134
0.229945
0.269742
0.242368
0.21046
0.191299
0.236568
0.307297
0.369613
0.422689
0.46668
0.503976
0.53438
0.555634
0.567279
0.568986
0.561685
0.545135
0.520496
0.491279
0.460584
0.431004
0.404358
0.381826
0.36357
0.349949
0.341628
0.337956
0.332431
0.316044
0.285862
0.247047
0.307252
0.275237
0.236363
0.204216
0.233732
0.303336
0.367412
0.422549
0.471382
0.513129
0.546821
0.571728
0.58661
0.591268
0.586364
0.572164
0.548969
0.520329
0.489278
0.4589
0.431161
0.407913
0.389309
0.375621
0.367447
0.36391
0.358512
0.340915
0.307767
0.265406
0.348916
0.311742
0.264901
0.220407
0.23393
0.30158
0.367391
0.428611
0.4852
0.531915
0.56986
0.599217
0.618401
0.627325
0.625856
0.61498
0.593793
0.566153
0.534977
0.503648
0.47445
0.449307
0.428983
0.413814
0.404241
0.398806
0.391504
0.370871
0.332998
0.285629
0.39722
0.354855
0.298267
0.242327
0.242272
0.306208
0.37852
0.448636
0.513828
0.569115
0.613967
0.649625
0.675044
0.690367
0.694934
0.68924
0.672206
0.646938
0.615846
0.582551
0.550281
0.521328
0.496806
0.476869
0.461908
0.450699
0.437308
0.41006
0.364255
0.309198
0.45976
0.41031
0.343858
0.277104
0.266167
0.331784
0.413024
0.494358
0.572793
0.640148
0.696367
0.742969
0.778377
0.803478
0.817257
0.81861
0.807291
0.785376
0.754806
0.718968
0.681642
0.645951
0.6132
0.583734
0.557855
0.534328
0.507902
0.468074
0.408864
0.341455
0.550497
0.495212
0.422034
0.347486
0.329973
0.402098
0.499506
0.597687
0.69285
0.776845
0.847248
0.907084
0.954139
0.990347
1.01463
1.02404
1.02014
1.00324
0.97435
0.936399
0.893252
0.848865
0.804637
0.760642
0.717382
0.673949
0.626261
0.565534
0.485428
0.398759
0.707911
0.651854
0.581042
0.512876
0.499212
0.580943
0.696899
0.811589
0.919733
1.01651
1.09652
1.1646
1.21821
1.25919
1.28784
1.30122
1.30249
1.29005
1.2638
1.22603
1.17964
1.1287
1.07513
1.01862
0.958711
0.894469
0.823453
0.739194
0.636638
0.527029
0.931066
0.894783
0.85632
0.827366
0.838002
0.92065
1.03127
1.13571
1.23191
1.31709
1.38707
1.44507
1.4886
1.51807
1.5305
1.52916
1.51855
1.49534
1.4621
1.42085
1.37339
1.32233
1.2708
1.21971
1.16656
1.10957
1.04593
0.971889
0.883391
0.785229
1.06148
1.06035
1.06263
1.07424
1.1112
1.17593
1.24089
1.30002
1.35687
1.40757
1.4504
1.48415
1.50544
1.51283
1.49658
1.4667
1.43376
1.39234
1.34771
1.30289
1.26016
1.22076
1.1858
1.15671
1.13387
1.11571
1.09975
1.08318
1.06074
1.0325
0.115108
0.145604
0.161836
0.173847
0.181797
0.185922
0.186404
0.183828
0.178798
0.172086
0.16418
0.155749
0.146885
0.137893
0.128043
0.116046
0.101733
0.0865239
0.0718393
0.0582375
0.0453949
0.0333516
0.0308811
0.0291249
0.0276683
0.025907
0.0244185
0.0257864
0.0307857
0.0359672
0.186543
0.235674
0.263614
0.281101
0.291463
0.296081
0.295347
0.290232
0.28156
0.270262
0.256828
0.24194
0.225284
0.206786
0.185348
0.161344
0.138519
0.119903
0.1053
0.0927812
0.0793508
0.0627574
0.0506832
0.0482615
0.0461795
0.0416507
0.0397353
0.0425189
0.0501605
0.0581949
0.22948
0.289496
0.328794
0.354494
0.370587
0.379097
0.380498
0.376042
0.366805
0.353827
0.337719
0.319275
0.298209
0.274435
0.246624
0.215489
0.185684
0.161862
0.143544
0.128163
0.11181
0.0912969
0.0738704
0.0681798
0.0649877
0.0587363
0.0541185
0.0543893
0.0609307
0.07238
0.251579
0.322439
0.368452
0.400934
0.422723
0.435813
0.440662
0.438284
0.430151
0.417298
0.400422
0.380341
0.356877
0.329987
0.298109
0.262166
0.227435
0.199372
0.177615
0.159465
0.14077
0.117597
0.0964403
0.0871727
0.0822434
0.0748145
0.0679793
0.0655355
0.0711161
0.0850374
0.261571
0.333117
0.390614
0.429274
0.45701
0.475361
0.484603
0.485272
0.479177
0.467463
0.450896
0.430317
0.40563
0.376864
0.342122
0.302689
0.264457
0.232981
0.208289
0.187751
0.167187
0.142319
0.118599
0.105929
0.0989771
0.0904108
0.0818053
0.0767476
0.0814656
0.0974865
0.25793
0.328812
0.391421
0.442172
0.478145
0.502349
0.516706
0.521335
0.517867
0.507951
0.492377
0.472069
0.446972
0.41714
0.380284
0.338299
0.297545
0.263366
0.236225
0.213672
0.191606
0.165686
0.140229
0.124605
0.115555
0.105766
0.0955063
0.0880731
0.0918133
0.110078
0.240753
0.315177
0.383627
0.440828
0.487848
0.519692
0.539711
0.548947
0.548589
0.540911
0.526837
0.507341
0.482408
0.452072
0.413673
0.369935
0.327427
0.291149
0.261981
0.237719
0.214398
0.187811
0.161243
0.143241
0.132142
0.121059
0.109286
0.0996031
0.101989
0.122016
0.214164
0.292339
0.369103
0.433584
0.487156
0.529444
0.555506
0.569697
0.572972
0.567785
0.555568
0.537288
0.512971
0.482537
0.443133
0.398318
0.35466
0.316861
0.285995
0.260259
0.235852
0.208837
0.181631
0.161839
0.148861
0.136435
0.123268
0.111456
0.111985
0.132816
0.186017
0.267286
0.349995
0.422193
0.482401
0.531152
0.565601
0.584801
0.592122
0.589619
0.579515
0.562769
0.539424
0.509219
0.469332
0.42405
0.379746
0.340913
0.308632
0.281585
0.256218
0.228928
0.201452
0.180394
0.165806
0.15205
0.137576
0.12381
0.121886
0.142303
0.159929
0.24297
0.330405
0.408377
0.474779
0.528892
0.570457
0.595173
0.606855
0.607247
0.599438
0.584472
0.562409
0.532689
0.49285
0.447652
0.403142
0.363652
0.330186
0.301961
0.275722
0.248269
0.220812
0.198931
0.18305
0.168069
0.152353
0.13685
0.131951
0.150667
0.137396
0.220531
0.311482
0.394293
0.465413
0.524326
0.570396
0.602032
0.617761
0.621417
0.615982
0.602991
0.582453
0.553512
0.514238
0.469614
0.42527
0.385392
0.350936
0.32163
0.294592
0.267047
0.239837
0.217511
0.200673
0.184624
0.16775
0.150644
0.14253
0.158321
0.119149
0.199693
0.293564
0.380354
0.4551
0.518154
0.568416
0.605285
0.62537
0.632672
0.629729
0.618864
0.600059
0.572254
0.534029
0.490415
0.446529
0.406437
0.371152
0.340835
0.313056
0.285481
0.258671
0.236221
0.218749
0.201828
0.183915
0.165265
0.153892
0.165772
0.106341
0.179605
0.276468
0.366751
0.444762
0.51098
0.564956
0.605353
0.630596
0.641497
0.641235
0.632621
0.615744
0.589477
0.552759
0.510524
0.467312
0.427098
0.391112
0.359818
0.331351
0.303798
0.277474
0.255188
0.237372
0.219789
0.201006
0.180795
0.166136
0.173624
0.0999866
0.160596
0.259571
0.353405
0.434533
0.5033
0.560527
0.604234
0.633804
0.648224
0.651098
0.644819
0.630064
0.605755
0.570969
0.530409
0.488021
0.447729
0.411083
0.378835
0.349729
0.322244
0.296439
0.274566
0.256656
0.238613
0.219068
0.197311
0.179311
0.182386
0.101109
0.14642
0.242332
0.339992
0.424473
0.495802
0.555575
0.602309
0.635332
0.653376
0.659852
0.656058
0.643618
0.62169
0.589225
0.550567
0.50909
0.468713
0.43139
0.398194
0.368482
0.34108
0.31581
0.294548
0.276746
0.258421
0.238174
0.21489
0.193575
0.192257
0.113306
0.141066
0.225426
0.326394
0.414539
0.488601
0.550393
0.599961
0.635862
0.657633
0.668034
0.666993
0.657081
0.637928
0.608128
0.571544
0.531011
0.49051
0.452453
0.418292
0.387978
0.360636
0.335917
0.315412
0.297831
0.279357
0.258442
0.233612
0.209238
0.202966
0.132373
0.144888
0.21126
0.31289
0.404753
0.481737
0.54558
0.597558
0.636038
0.661716
0.676162
0.678397
0.671245
0.655183
0.628362
0.593981
0.5544
0.513714
0.474829
0.43968
0.408736
0.381383
0.357262
0.337546
0.320183
0.301603
0.280014
0.25356
0.226172
0.214887
0.157621
0.159243
0.203672
0.300148
0.395245
0.475255
0.541292
0.595399
0.636455
0.666255
0.684952
0.691124
0.687073
0.674273
0.650749
0.618699
0.580082
0.539158
0.499337
0.463175
0.431514
0.404068
0.380707
0.361542
0.344201
0.325422
0.303072
0.274842
0.244386
0.228384
0.186236
0.18029
0.203672
0.289296
0.386243
0.469248
0.537623
0.593723
0.637762
0.672232
0.695437
0.706122
0.705696
0.696341
0.676392
0.646842
0.60925
0.568067
0.527238
0.490057
0.457568
0.429971
0.407313
0.38826
0.370493
0.351222
0.327886
0.297577
0.263938
0.243536
0.218487
0.206545
0.21246
0.281859
0.378096
0.463832
0.534674
0.592848
0.64085
0.680741
0.708956
0.724585
0.728673
0.723001
0.706886
0.680119
0.643731
0.602345
0.560632
0.522411
0.489074
0.461497
0.438705
0.418984
0.399999
0.379676
0.354903
0.321966
0.284953
0.260096
0.254348
0.236254
0.229606
0.278372
0.371212
0.459146
0.532638
0.593754
0.647655
0.693576
0.727405
0.748475
0.758041
0.756682
0.744665
0.721232
0.686425
0.64514
0.603025
0.563846
0.530057
0.501559
0.477321
0.455602
0.43424
0.411927
0.384908
0.348372
0.307293
0.277874
0.293693
0.268405
0.250765
0.279814
0.366116
0.455433
0.531979
0.599539
0.661858
0.713523
0.753659
0.780925
0.79693
0.801192
0.793777
0.774587
0.742037
0.701988
0.660278
0.620919
0.585517
0.554338
0.526737
0.500879
0.47569
0.449926
0.419317
0.377833
0.331453
0.297037
0.337203
0.304079
0.276172
0.286286
0.36357
0.453565
0.536212
0.614898
0.685978
0.745142
0.792467
0.827141
0.850835
0.862455
0.861037
0.847426
0.81857
0.781971
0.741526
0.700714
0.661952
0.625616
0.591894
0.559724
0.528562
0.49713
0.46077
0.412303
0.358818
0.317892
0.387154
0.3457
0.307526
0.300981
0.365921
0.459
0.553532
0.644473
0.726762
0.796116
0.852451
0.89608
0.929187
0.949997
0.957549
0.95118
0.928836
0.895709
0.85534
0.811349
0.766945
0.723428
0.681244
0.640077
0.59984
0.559464
0.514209
0.455637
0.391935
0.342315
0.449766
0.399604
0.349597
0.32878
0.387707
0.486957
0.59367
0.697772
0.795373
0.877354
0.946091
1.00225
1.04686
1.0786
1.09681
1.09738
1.08057
1.05023
1.00979
0.962215
0.911309
0.859079
0.806211
0.753096
0.70019
0.646755
0.588225
0.515516
0.437224
0.374629
0.539392
0.481158
0.418688
0.385473
0.440623
0.549871
0.67288
0.794616
0.909121
1.00711
1.09005
1.15961
1.21599
1.25786
1.28601
1.29218
1.27945
1.25099
1.20974
1.15834
1.10089
1.03992
0.976137
0.910055
0.842379
0.772855
0.697378
0.606513
0.508604
0.427187
0.68137
0.618936
0.547793
0.508432
0.559481
0.681975
0.82348
0.962417
1.09212
1.20509
1.29965
1.37934
1.44375
1.49091
1.52297
1.52869
1.51397
1.48224
1.43701
1.38108
1.31843
1.25203
1.18245
1.10936
1.03232
0.950269
0.85975
0.751883
0.633511
0.528747
0.903009
0.847241
0.782702
0.749469
0.799886
0.926922
1.07645
1.22098
1.3533
1.46988
1.56555
1.64495
1.70714
1.7481
1.76809
1.75626
1.72314
1.67352
1.61559
1.55234
1.48673
1.42141
1.35774
1.29461
1.22895
1.1569
1.07326
0.969273
0.847505
0.731219
1.15043
1.11809
1.09281
1.08927
1.14472
1.25702
1.38667
1.51038
1.62325
1.72292
1.80373
1.86617
1.90882
1.9234
1.90622
1.85343
1.79069
1.71997
1.6488
1.58019
1.51686
1.46036
1.41199
1.37081
1.33325
1.29429
1.24757
1.18596
1.10844
1.03212
1.23234
1.22948
1.23451
1.25918
1.31838
1.4057
1.49866
1.588
1.67202
1.74729
1.80653
1.84705
1.86393
1.84775
1.79388
1.71188
1.62834
1.54285
1.46323
1.39333
1.3362
1.292
1.26088
1.24249
1.23509
1.23471
1.23612
1.23258
1.22166
1.20949
0.143334
0.177568
0.194535
0.207646
0.217206
0.222793
0.2242
0.221894
0.216414
0.208548
0.198717
0.187628
0.175189
0.161685
0.146016
0.127009
0.106105
0.0875032
0.0736791
0.0630245
0.0503384
0.0350251
0.031705
0.0303808
0.0285744
0.0266335
0.0266685
0.0310836
0.0370166
0.040586
0.228511
0.284953
0.317171
0.339985
0.35428
0.36121
0.360873
0.354643
0.34356
0.328741
0.310623
0.289883
0.265884
0.238437
0.20678
0.175115
0.150388
0.136807
0.129194
0.119278
0.0983094
0.0657718
0.0444204
0.0433345
0.0422929
0.040728
0.042785
0.0497945
0.0605086
0.0692026
0.279637
0.349865
0.398617
0.432839
0.454208
0.464978
0.46582
0.459047
0.446094
0.428193
0.405859
0.379792
0.3494
0.314385
0.273876
0.233545
0.202684
0.18591
0.175797
0.162265
0.13553
0.0937706
0.0619827
0.059245
0.0579777
0.0558321
0.0567381
0.0632876
0.0765266
0.0924148
0.306467
0.390699
0.451292
0.495137
0.523102
0.538025
0.54115
0.535264
0.522305
0.503448
0.479206
0.450226
0.416064
0.376445
0.330217
0.284152
0.248604
0.228276
0.214977
0.198121
0.167674
0.120139
0.0822872
0.0758102
0.0733473
0.0702728
0.0699436
0.0757066
0.0908809
0.113872
0.319526
0.409744
0.485099
0.536883
0.571431
0.591184
0.597712
0.593762
0.581929
0.563326
0.538449
0.507916
0.471416
0.428756
0.378352
0.328248
0.289281
0.265755
0.249496
0.230025
0.197367
0.147024
0.105311
0.0934203
0.0889732
0.0847367
0.0829967
0.08798
0.104541
0.133924
0.319101
0.411515
0.497463
0.562544
0.603839
0.629337
0.640449
0.63946
0.629638
0.612149
0.587504
0.556349
0.518504
0.473684
0.420128
0.367228
0.325859
0.299668
0.280863
0.259368
0.225512
0.174691
0.130051
0.112439
0.10521
0.099423
0.0960893
0.100214
0.117711
0.15326
0.311406
0.404181
0.495018
0.569752
0.623422
0.655424
0.67212
0.675211
0.668076
0.652361
0.62865
0.597559
0.559074
0.512713
0.456897
0.402255
0.359335
0.330992
0.31003
0.286958
0.252523
0.202168
0.15562
0.132869
0.122371
0.114573
0.109373
0.112426
0.130409
0.171059
0.294063
0.38857
0.484828
0.565989
0.629228
0.671717
0.69468
0.702869
0.698976
0.685563
0.663319
0.632852
0.594353
0.546887
0.489707
0.434282
0.390545
0.360508
0.337667
0.313315
0.278693
0.229427
0.181833
0.154622
0.140576
0.130429
0.123028
0.124659
0.14227
0.186731
0.270643
0.365818
0.467977
0.55627
0.626479
0.678942
0.7097
0.723759
0.723636
0.712929
0.692573
0.663217
0.62523
0.577108
0.519473
0.464159
0.420231
0.388865
0.364384
0.338842
0.304249
0.256431
0.208512
0.177573
0.159795
0.147203
0.137294
0.137057
0.153555
0.200031
0.245647
0.341045
0.447253
0.542173
0.619438
0.678319
0.719077
0.738842
0.743171
0.735402
0.717293
0.689473
0.652432
0.604257
0.547069
0.492681
0.44907
0.416651
0.390601
0.363901
0.329414
0.283198
0.235562
0.201598
0.18007
0.164848
0.152549
0.14976
0.164587
0.211217
0.220668
0.316169
0.42552
0.52562
0.609356
0.674623
0.722351
0.749009
0.758417
0.75382
0.738263
0.71237
0.676676
0.629191
0.573361
0.520597
0.477709
0.4444
0.416773
0.38886
0.354449
0.309845
0.263045
0.226641
0.201475
0.18344
0.168849
0.163064
0.175729
0.220842
0.19712
0.291994
0.403871
0.50847
0.597404
0.668636
0.72165
0.755856
0.770093
0.768971
0.756248
0.732643
0.698733
0.652792
0.599225
0.548751
0.506785
0.472642
0.443341
0.414122
0.379669
0.336625
0.291087
0.252712
0.22411
0.203121
0.186189
0.177221
0.187307
0.229588
0.17626
0.268639
0.382758
0.491394
0.584969
0.661189
0.719306
0.759296
0.778698
0.781715
0.772029
0.751049
0.719459
0.675996
0.625557
0.577941
0.536927
0.5019
0.470773
0.440121
0.40547
0.363941
0.319822
0.279859
0.248103
0.224072
0.204638
0.192383
0.199508
0.238123
0.159086
0.246295
0.362348
0.474802
0.572555
0.65293
0.715847
0.760494
0.785075
0.792874
0.786431
0.76842
0.739814
0.699784
0.653267
0.608804
0.568773
0.532715
0.499574
0.467338
0.432337
0.392426
0.349524
0.30821
0.273594
0.246501
0.224343
0.208639
0.212484
0.247049
0.147701
0.226344
0.342778
0.458939
0.560599
0.644783
0.711808
0.760445
0.790347
0.80319
0.800342
0.785768
0.760802
0.725179
0.683289
0.642159
0.603006
0.565668
0.530336
0.496356
0.460923
0.422607
0.380574
0.337983
0.300755
0.270624
0.245506
0.22616
0.226798
0.256822
0.143907
0.211474
0.324509
0.443903
0.549392
0.637113
0.707656
0.760168
0.794912
0.813351
0.814781
0.804209
0.783595
0.753242
0.716591
0.678852
0.640367
0.601442
0.563813
0.527973
0.492214
0.455121
0.41345
0.369494
0.329811
0.296684
0.268344
0.245208
0.242136
0.267767
0.150123
0.204383
0.308737
0.429944
0.53907
0.630176
0.703787
0.759991
0.799734
0.824147
0.830944
0.824981
0.809574
0.785098
0.754242
0.719828
0.681732
0.640926
0.600979
0.563353
0.527812
0.490867
0.448756
0.403175
0.361076
0.324947
0.293078
0.265934
0.25839
0.280163
0.169256
0.205219
0.297143
0.417542
0.529795
0.624168
0.700814
0.760523
0.80592
0.836884
0.849969
0.849509
0.840249
0.822121
0.797427
0.766217
0.728212
0.685344
0.643196
0.604343
0.568855
0.530934
0.487171
0.439645
0.395008
0.355745
0.319976
0.288373
0.275736
0.294088
0.195601
0.216318
0.290968
0.407291
0.521761
0.619232
0.698949
0.762825
0.81511
0.853054
0.873104
0.87953
0.877338
0.866113
0.847644
0.819502
0.781364
0.736441
0.692611
0.653845
0.61702
0.576612
0.529869
0.479843
0.432318
0.389604
0.349468