/*--------------------------------*- C++ -*----------------------------------*\
| =========                 |                                                 |
| \\      /  F ield         | OpenFOAM: The Open Source CFD Toolbox           |
|  \\    /   O peration     | Version:  5.0                                   |
|   \\  /    A nd           | Web:      www.OpenFOAM.org                      |
|    \\/     M anipulation  |                                                 |
\*---------------------------------------------------------------------------*/
FoamFile
{
    version     2.0;
    format      ascii;
    class       volScalarField;
    location    "900/air";
    object      nut;
}
// * * * * * * * * * * * * * * * * * * * * * * * * * * * * * * * * * * * * * //

dimensions      [0 2 -1 0 0 0 0];

internalField   nonuniform List<scalar> 
243000
(
0.000129002
0.000138222
0.000138928
0.000137367
0.000134088
0.000129642
0.00012447
0.000118949
0.00011338
0.000108035
0.000103099
9.88707e-05
9.55312e-05
9.33381e-05
9.21883e-05
9.16056e-05
9.10401e-05
9.03088e-05
8.94663e-05
8.86128e-05
8.78177e-05
8.71268e-05
8.66668e-05
8.6573e-05
8.62936e-05
8.53749e-05
8.279e-05
7.75013e-05
6.79252e-05
8.09001e-05
0.000566057
0.000627041
0.000653427
0.000669873
0.00067859
0.000681179
0.00067861
0.000671965
0.000662219
0.000650536
0.000638043
0.000626336
0.00061626
0.000608744
0.0006023
0.000593726
0.000581064
0.00056526
0.000547919
0.000530127
0.000512418
0.000495025
0.000478925
0.000465562
0.000452501
0.000437208
0.000417168
0.00038695
0.00035503
0.000358933
0.000611491
0.000676239
0.000708462
0.0007292
0.000741394
0.00074685
0.000746457
0.000741485
0.000733024
0.000722411
0.00071079
0.000699767
0.000690122
0.0006826
0.00067523
0.000664409
0.000648234
0.000628346
0.000606866
0.000585215
0.000564079
0.00054366
0.000524687
0.000508274
0.000492932
0.000476376
0.000456213
0.000428429
0.000396101
0.000387802
0.000622661
0.000698312
0.000738642
0.000764521
0.000781206
0.000790498
0.000793296
0.000790859
0.000784556
0.00077586
0.000765954
0.000756445
0.000748001
0.0007412
0.000733722
0.000721772
0.000703417
0.000680814
0.000656369
0.000631793
0.000607923
0.000584994
0.000563569
0.000544483
0.000526522
0.000508075
0.000486861
0.000459598
0.000427427
0.00041059
0.000611178
0.000696761
0.000751378
0.000784596
0.000806267
0.000819953
0.000826511
0.000827137
0.00082344
0.000817095
0.000809311
0.000801698
0.000794793
0.000789007
0.00078175
0.000769214
0.000749525
0.000725129
0.00069863
0.000671929
0.000645991
0.000621105
0.000597709
0.000576422
0.000556083
0.000535633
0.000513101
0.000485567
0.000453124
0.000431251
0.00058895
0.000682771
0.000749712
0.000792697
0.000821119
0.000839493
0.000850119
0.000854202
0.000853356
0.000849579
0.00084411
0.000838576
0.000833366
0.000828729
0.000821862
0.000809039
0.000788569
0.00076303
0.000735139
0.000706932
0.000679475
0.0006531
0.000628156
0.000605089
0.000582804
0.000560457
0.000536603
0.000508516
0.000475585
0.000449799
0.000566495
0.000661811
0.000739069
0.000791208
0.000827762
0.000851727
0.000866604
0.000874358
0.000876576
0.000875459
0.000872394
0.000869021
0.00086557
0.000862157
0.000855774
0.000842864
0.000821986
0.000795772
0.000766995
0.000737763
0.000709213
0.000681721
0.00065557
0.000631079
0.000607237
0.000583207
0.000558157
0.000529455
0.000495965
0.000466758
0.000540937
0.00064212
0.000722514
0.000783734
0.000827225
0.00085817
0.000877568
0.000889126
0.000894564
0.00089618
0.000895541
0.000894354
0.000892687
0.00089053
0.000884688
0.000871838
0.000850836
0.000824299
0.00079501
0.000765125
0.000735819
0.000707509
0.000680429
0.00065482
0.000629736
0.000604266
0.000578188
0.000548914
0.000514965
0.000482616
0.000513821
0.00062196
0.000705324
0.000771789
0.000822091
0.000859128
0.000884205
0.000899568
0.000908311
0.00091274
0.000914539
0.000915532
0.000915636
0.000914739
0.000909474
0.000896815
0.000875917
0.000849325
0.00081982
0.000789572
0.000759776
0.000730886
0.000703119
0.000676644
0.000650579
0.000623901
0.000596961
0.000567202
0.000532885
0.000497735
0.000489454
0.00059999
0.000688865
0.000757638
0.000813174
0.000856111
0.000886722
0.000906415
0.000918556
0.000925853
0.000930097
0.000933254
0.000935119
0.000935451
0.000930793
0.000918441
0.000897821
0.000871411
0.000841924
0.000811543
0.00078147
0.000752202
0.000723948
0.00069682
0.000669989
0.000642318
0.000614674
0.000584548
0.000549852
0.000512371
0.000474077
0.000574962
0.000672285
0.000743916
0.000801475
0.00084991
0.000885592
0.000910288
0.000925834
0.000936065
0.000942775
0.000948061
0.000951644
0.00095319
0.000949151
0.00093721
0.000916999
0.000890976
0.00086171
0.000831381
0.000801213
0.00077173
0.000743164
0.000715564
0.000688158
0.000659689
0.000631488
0.000601125
0.000566204
0.000526832
0.000478485
0.000547986
0.000654427
0.000730346
0.000790412
0.000841104
0.0008818
0.000911124
0.000930631
0.000943801
0.000953003
0.000960378
0.000965632
0.000968351
0.00096495
0.000953511
0.000933825
0.000908338
0.000879477
0.000849364
0.000819244
0.000789694
0.000760965
0.000733061
0.000705252
0.00067616
0.000647538
0.000616972
0.000582155
0.000541405
0.000502365
0.000522646
0.000634102
0.000716546
0.000779323
0.000831144
0.000875737
0.000909558
0.000933268
0.000949368
0.000961116
0.000970554
0.000977416
0.000981261
0.000978514
0.000967657
0.0009486
0.000923754
0.000895465
0.000865707
0.000835766
0.000806271
0.000777506
0.000749448
0.000721394
0.000691844
0.000662927
0.000632213
0.000597279
0.000555822
0.000529063
0.000509587
0.000610823
0.000701422
0.000768053
0.00082161
0.000867806
0.000906101
0.0009337
0.0009532
0.000967373
0.000978874
0.000987267
0.000992186
0.000990112
0.000979905
0.000961566
0.000937458
0.00090984
0.000880593
0.000850937
0.000821608
0.00079293
0.000764846
0.000736691
0.000706892
0.000677745
0.00064693
0.000611979
0.000570033
0.000557965
0.000526554
0.000585196
0.000683811
0.000756433
0.000812112
0.000858989
0.000901057
0.000932469
0.000955452
0.000972044
0.000985541
0.000995406
0.00100135
0.000999966
0.00099047
0.000972927
0.000949638
0.000922772
0.00089414
0.000864901
0.000835846
0.000807373
0.000779377
0.000751246
0.000721415
0.00069209
0.000661245
0.000626333
0.000584292
0.00058835
0.000554617
0.000563178
0.000663613
0.000743533
0.000802558
0.000850616
0.000894714
0.00092992
0.000956153
0.000975393
0.000990782
0.00100201
0.00100894
0.00100826
0.000999533
0.000982854
0.000960458
0.000934414
0.000906471
0.000877759
0.000849111
0.000820947
0.000793158
0.000765154
0.000735415
0.000705996
0.000675224
0.00064043
0.000598788
0.000618835
0.000583999
0.000553994
0.000640706
0.000728946
0.000792931
0.000842405
0.00088731
0.00092627
0.000955571
0.000977483
0.000994742
0.00100725
0.00101511
0.00101516
0.00100725
0.000991496
0.000970056
0.000944906
0.00091772
0.000889624
0.000861489
0.000833763
0.000806289
0.000778498
0.00074898
0.000719563
0.00068892
0.000654274
0.000612983
0.000649097
0.000614179
0.000572436
0.000618161
0.000712641
0.000782748
0.000834311
0.000879356
0.000921718
0.000953977
0.000978355
0.000997564
0.00101127
0.00101997
0.00102079
0.00101375
0.000998984
0.000978559
0.000954375
0.000928017
0.000900618
0.000873096
0.000845911
0.000818875
0.000791427
0.000762223
0.000732873
0.000702401
0.000667905
0.000626673
0.000679084
0.000644666
0.000600065
0.000602476
0.000694774
0.000771996
0.000826452
0.000871815
0.000916423
0.000951491
0.000978098
0.000999277
0.00101414
0.00102363
0.00102525
0.00101914
0.00100543
0.000986102
0.000962951
0.000937497
0.000910879
0.000884065
0.000857515
0.000831038
0.000804063
0.000775274
0.00074603
0.000715756
0.00068143
0.00064025
0.000708668
0.000674612
0.000628921
0.00059844
0.000676458
0.000760637
0.000818787
0.000864545
0.000910477
0.000948173
0.000976892
0.00099975
0.00101593
0.00102617
0.00102862
0.0010235
0.00101094
0.000992808
0.000970769
0.000946296
0.000920544
0.000894525
0.000868711
0.000842912
0.00081655
0.000788299
0.000759183
0.000729097
0.000694936
0.000653831
0.000737749
0.000703673
0.000657464
0.000609341
0.000659999
0.000748825
0.000811319
0.000857535
0.000903879
0.000944007
0.000974737
0.000999107
0.00101649
0.0010276
0.00103095
0.00102691
0.00101559
0.000998766
0.000977943
0.00095455
0.000929757
0.000904629
0.000879642
0.000854638
0.000829039
0.000801465
0.00077244
0.000742516
0.000708493
0.000667444
0.000766297
0.000731774
0.000685323
0.000630028
0.000648421
0.000737009
0.000804091
0.000850865
0.000896499
0.000938943
0.000971541
0.00099735
0.00101584
0.00102785
0.0010322
0.00102937
0.00101943
0.00100403
0.000984557
0.000962372
0.000938663
0.000914529
0.000890459
0.000866363
0.000841659
0.000814899
0.000785937
0.000756126
0.000722167
0.0006811
0.000794167
0.000759014
0.000712483
0.000654433
0.000643505
0.000725918
0.000797113
0.000844391
0.000889146
0.00093291
0.00096713
0.000994305
0.00101384
0.00102679
0.00103219
0.00103071
0.00102231
0.00100852
0.000990584
0.0009698
0.000947331
0.000924323
0.000901297
0.000878199
0.000854477
0.000828634
0.000799772
0.000770069
0.000736045
0.000694806
0.000821366
0.000785713
0.000740377
0.000679114
0.000645358
0.0007164
0.000790468
0.00083834
0.00088242
0.000925747
0.000961037
0.000989282
0.00100982
0.00102379
0.00103033
0.00103038
0.00102372
0.00101182
0.000995672
0.000976547
0.000955555
0.000933871
0.000912046
0.000890055
0.000867369
0.000842477
0.000813955
0.000784374
0.000750185
0.000708574
0.000848481
0.00081386
0.000766708
0.000702676
0.000653658
0.00070969
0.000784902
0.000833296
0.000876685
0.000918468
0.000952738
0.000981473
0.00100271
0.00101759
0.00102531
0.00102699
0.00102233
0.00101259
0.000998673
0.000981568
0.000962395
0.000942333
0.000921929
0.000901185
0.000879592
0.000855726
0.00082844
0.000799297
0.000764993
0.000722708
0.000876303
0.000840565
0.000791437
0.000724929
0.000665541
0.000707523
0.000781666
0.000830277
0.000873084
0.000913947
0.000946404
0.000973313
0.000993669
0.00100841
0.00101712
0.00102043
0.0010182
0.00101118
0.00100007
0.000985666
0.000968825
0.000950514
0.000931378
0.000911641
0.000891119
0.000869011
0.000844283
0.000816076
0.000781604
0.000738284
0.000905282
0.00086871
0.000818069
0.000749323
0.000683172
0.000714781
0.000784854
0.000833724
0.00087613
0.000916807
0.000948172
0.000974139
0.000994319
0.00100949
0.00101937
0.00102426
0.00102433
0.00101987
0.00101139
0.00099951
0.000984934
0.000968475
0.000950732
0.000932012
0.000912293
0.000891064
0.000867235
0.000839197
0.000803921
0.00075873
0.000943628
0.000907003
0.00085648
0.0007888
0.00072337
0.000749849
0.000814098
0.000862532
0.000904428
0.00094462
0.000975325
0.00100061
0.00102055
0.00103599
0.00104682
0.00105283
0.0010545
0.001052
0.00104551
0.00103556
0.00102276
0.00100782
0.000991215
0.000973202
0.000953758
0.00093248
0.000908395
0.000879532
0.000842558
0.000794558
0.00102344
0.000994052
0.000954803
0.00090526
0.000861642
0.000885038
0.000937175
0.000979931
0.00101677
0.00105129
0.00107841
0.00110053
0.00111769
0.00113133
0.00114101
0.00114615
0.00114748
0.00114519
0.00113922
0.00113012
0.00111842
0.00110466
0.00108922
0.0010722
0.00105317
0.00103172
0.00100743
0.000978937
0.000943563
0.000897231
0.0013037
0.00129689
0.00128777
0.00127622
0.00126977
0.00128232
0.00130425
0.00131892
0.00133108
0.00134153
0.00135073
0.00135898
0.00136444
0.00136993
0.00137373
0.00137495
0.00137449
0.0013729
0.00136974
0.00136583
0.00136127
0.00135652
0.00135172
0.00134653
0.00133815
0.00132612
0.00131283
0.00129867
0.00128314
0.00126077
0.000156879
0.000169648
0.000172803
0.000172433
0.000169748
0.00016546
0.00016004
0.000153949
0.000147564
0.000141282
0.000135336
0.000130027
0.000125453
0.000121775
0.000118707
0.000115554
0.000111767
0.000107286
0.000102319
9.69825e-05
9.13141e-05
8.5319e-05
8.04146e-05
7.73291e-05
7.57413e-05
7.48855e-05
7.623e-05
7.30106e-05
7.88902e-05
9.11473e-05
0.000586492
0.00069766
0.000715266
0.000710102
0.000695887
0.000676553
0.000654278
0.000630673
0.000607021
0.000583665
0.000560002
0.000536785
0.000511806
0.000483747
0.000449013
0.000407137
0.000363958
0.000326276
0.000297257
0.000276004
0.000260132
0.000246849
0.000243347
0.000252716
0.000275737
0.000307552
0.000328625
0.000333703
0.00037831
0.000442596
0.000963628
0.00115108
0.00123402
0.00127129
0.00128274
0.00127635
0.00125579
0.00122527
0.00118947
0.00115071
0.00110875
0.00106466
0.00101518
0.000957758
0.000887183
0.000802587
0.000713699
0.000636082
0.000575182
0.000530494
0.000497962
0.000471483
0.000458492
0.000467115
0.000491534
0.00051951
0.00052529
0.000502968
0.000512429
0.000588476
0.00119094
0.00147661
0.00162189
0.0017149
0.00177189
0.00179816
0.00179703
0.00177205
0.00173259
0.00168493
0.00163023
0.00156822
0.00149615
0.00141165
0.00130916
0.00118723
0.00105794
0.000944338
0.000853587
0.00078597
0.000735621
0.000694531
0.000669506
0.000670438
0.000688975
0.000702623
0.000683428
0.00062936
0.00060153
0.000668911
0.00127423
0.00160134
0.00186725
0.00205258
0.00216272
0.00223197
0.00226025
0.00225068
0.00221366
0.00216242
0.00209774
0.00202272
0.00193222
0.00182446
0.0016949
0.00154133
0.00137881
0.0012342
0.00111744
0.00102937
0.000962752
0.000908468
0.000871491
0.000861601
0.0008714
0.000871233
0.000827736
0.000742996
0.000681978
0.000737296
0.00126928
0.00164948
0.00198299
0.00226527
0.00247279
0.00258868
0.00265181
0.00266385
0.00263442
0.00258187
0.00251229
0.00242728
0.00232252
0.00219567
0.0020436
0.00186352
0.00167482
0.00150405
0.0013649
0.00125876
0.00117773
0.0011118
0.00106391
0.00104251
0.00104174
0.00103024
0.000965385
0.000852621
0.000760279
0.000804088
0.00118755
0.00163307
0.00203851
0.00239102
0.00268863
0.00288084
0.00298037
0.00301758
0.00300049
0.00294957
0.00287703
0.00278554
0.00267007
0.00252854
0.00235796
0.00215648
0.00194737
0.00175519
0.00159699
0.00147483
0.00138104
0.00130477
0.00124709
0.00121463
0.00120284
0.00118197
0.001099
0.000961319
0.000837978
0.000868103
0.00106797
0.0015534
0.00203916
0.00246689
0.00282589
0.00310586
0.00325291
0.00331813
0.00331703
0.00327045
0.00319678
0.00310167
0.00297886
0.00282684
0.00264109
0.0024231
0.00219808
0.0019896
0.00181505
0.00167873
0.00157352
0.00148795
0.00142148
0.00137894
0.00135656
0.00132795
0.0012299
0.00107051
0.000917596
0.000926628
0.000939053
0.00144325
0.00199519
0.0024996
0.00292015
0.00325571
0.00347971
0.00357062
0.00358809
0.00354973
0.00347627
0.00337987
0.00325271
0.00309379
0.00289637
0.00266614
0.00242896
0.00220862
0.00202032
0.00187156
0.00175594
0.00166192
0.00158766
0.00153626
0.00150425
0.00146935
0.00135894
0.00118096
0.00100065
0.000980231
0.000822614
0.0013207
0.00191555
0.00249341
0.0029776
0.00336202
0.0036439
0.00377862
0.00381776
0.00379109
0.00371987
0.0036238
0.0034952
0.00333243
0.00312681
0.00288809
0.00264211
0.00241323
0.00221385
0.00205431
0.00192892
0.00182733
0.00174632
0.00168731
0.0016469
0.00160714
0.00148684
0.00129318
0.0010877
0.0010301
0.000733793
0.0011972
0.0018135
0.0024463
0.00299885
0.00343495
0.00375208
0.00394764
0.00400883
0.0039975
0.00393366
0.00383773
0.00370955
0.00354569
0.0033351
0.00309117
0.00283928
0.00260395
0.00239694
0.00222774
0.00209345
0.00198484
0.00189809
0.00183273
0.00178532
0.00174211
0.00161412
0.00140742
0.00117916
0.00107812
0.000680417
0.0010791
0.00169885
0.00236865
0.0029801
0.00347553
0.00383275
0.00406784
0.00416554
0.00417181
0.00411839
0.00402475
0.00389853
0.00373616
0.00352354
0.00327727
0.00302193
0.00278211
0.00256984
0.00239249
0.00225025
0.00213515
0.0020436
0.00197309
0.00192012
0.00187484
0.00174122
0.00152375
0.00127521
0.0011313
0.00066082
0.000969001
0.00157897
0.00226922
0.00292822
0.00348253
0.00388698
0.0041509
0.00429299
0.00431572
0.00427653
0.00418728
0.00406514
0.0039062
0.00369411
0.00344794
0.00319131
0.00294868
0.00273274
0.00254921
0.00239986
0.00227899
0.00218336
0.00210879
0.00205173
0.00200571
0.00186835
0.00164206
0.00137556
0.00119139
0.000695004
0.000890094
0.001458
0.00215535
0.00285081
0.00345723
0.0039164
0.00421292
0.00438439
0.00443297
0.00440987
0.00433062
0.00421178
0.00405763
0.0038483
0.00360433
0.00334828
0.00310438
0.00288578
0.00269823
0.00254261
0.00241688
0.00231769
0.00224006
0.00218037
0.00213468
0.00199556
0.00176214
0.00147971
0.0012597
0.000765734
0.000857525
0.00134039
0.00203335
0.00275493
0.00340727
0.00392076
0.00425564
0.00444897
0.00453192
0.00452019
0.00445412
0.00433995
0.00419168
0.00398708
0.0037471
0.0034933
0.0032495
0.0030293
0.00283919
0.00267859
0.00254886
0.00244686
0.00236693
0.00230599
0.00226116
0.0021226
0.00188377
0.00158484
0.00133698
0.000878029
0.000871892
0.0012364
0.00190916
0.00264751
0.00333914
0.00389951
0.00428117
0.00449795
0.00460571
0.00460975
0.00455972
0.00445076
0.00430889
0.0041107
0.00387626
0.00362623
0.00338385
0.00316316
0.00297131
0.00280775
0.00267471
0.0025707
0.00248916
0.00242822
0.00238494
0.00224896
0.00200666
0.00169324
0.00142086
0.00102159
0.000959535
0.00116964
0.00178953
0.0025351
0.00325895
0.00386217
0.00429135
0.00453226
0.00465814
0.00468165
0.00464887
0.00454454
0.00440895
0.00421846
0.00399093
0.00374611
0.00350649
0.00328667
0.00309396
0.00292889
0.00279358
0.00268845
0.0026059
0.00254615
0.0025051
0.00237368
0.00212995
0.00180359
0.00151007
0.00119169
0.00108476
0.00114488
0.00168303
0.00242382
0.00317246
0.00381349
0.00428616
0.00455268
0.00469351
0.00473837
0.00471743
0.00462035
0.00448995
0.00430832
0.00408893
0.0038508
0.00361538
0.00339794
0.00320556
0.00304007
0.00290407
0.00279824
0.0027155
0.00265806
0.00261988
0.00249505
0.00225207
0.00191518
0.00160438
0.0013873
0.0012392
0.0011938
0.00160188
0.00231953
0.00308472
0.00375716
0.00426351
0.00455941
0.00471417
0.00477943
0.00476201
0.00467454
0.00454805
0.00437639
0.00416631
0.00393646
0.00370737
0.0034936
0.00330301
0.00313828
0.00300302
0.00289711
0.00281511
0.00276111
0.00272635
0.00261029
0.00237032
0.00202834
0.00170441
0.00160337
0.00141638
0.00129549
0.00155864
0.00222762
0.00299989
0.00369605
0.00423035
0.00455145
0.00471828
0.00478732
0.00477897
0.00470083
0.00457644
0.00441634
0.00421641
0.00399676
0.00377597
0.00356792
0.00338107
0.00321856
0.00308477
0.00298009
0.00290021
0.0028507
0.00281994
0.00271507
0.00248078
0.00213876
0.00180831
0.00183039
0.00160892
0.00143411
0.00153351
0.00215181
0.00292075
0.00363177
0.00418783
0.00452816
0.00468209
0.00475982
0.00475845
0.00468853
0.0045652
0.00441722
0.0042286
0.00402139
0.00381118
0.00361185
0.00343048
0.00327145
0.0031415
0.00303982
0.00296394
0.00291967
0.00289368
0.00280267
0.00257788
0.00224112
0.00190833
0.00205404
0.00180492
0.00157856
0.00156672
0.00209654
0.00284828
0.00356476
0.00411291
0.00443139
0.00459535
0.00468242
0.00468436
0.00462112
0.00450021
0.00436237
0.00418726
0.00399534
0.00379852
0.00360938
0.00343571
0.00328518
0.00316161
0.00306514
0.00299607
0.00295716
0.00293706
0.00286297
0.00265312
0.00232875
0.00199968
0.00225653
0.0019923
0.00172181
0.00162585
0.00206242
0.00278138
0.00345828
0.003947
0.00427726
0.00445541
0.00453314
0.00453561
0.00447504
0.00436123
0.00422989
0.00407283
0.00389797
0.00371617
0.00354024
0.00338029
0.00324157
0.00312781
0.00303993
0.00297929
0.00294803
0.00293594
0.00288194
0.00269481
0.00239281
0.00207657
0.00241777
0.00215089
0.00184908
0.00168343
0.00201745
0.00267638
0.00325765
0.00372183
0.00405337
0.00421904
0.00428558
0.00428242
0.00422607
0.00412556
0.00400176
0.00386712
0.00370993
0.00354748
0.00338954
0.00324608
0.00312201
0.00302151
0.00294624
0.00289783
0.00287796
0.00287676
0.00284504
0.00268978
0.00242247
0.00213118
0.00251716
0.00225947
0.00194297
0.00173954
0.00197588
0.00250532
0.00301826
0.00343634
0.0037117
0.00386101
0.00391689
0.00391553
0.00387195
0.00379316
0.00368712
0.00357735
0.00344483
0.00330658
0.00317142
0.00304792
0.0029416
0.0028568
0.002796
0.00276026
0.00275104
0.00276052
0.00274804
0.00263042
0.00240754
0.00215343
0.00254091
0.00230342
0.00199693
0.00176852
0.00190203
0.00232172
0.00272134
0.00305043
0.00327864
0.00340719
0.00346997
0.0034897
0.00347389
0.0034287
0.00335555
0.00327602
0.00317807
0.00307018
0.00296199
0.00286047
0.00277132
0.00269994
0.00264909
0.0026199
0.00261293
0.00262153
0.00261596
0.00253029
0.00234939
0.0021373
0.00251584
0.0023049
0.00202404
0.00178306
0.00178769
0.00209214
0.00240812
0.00267269
0.00287643
0.00300803
0.00308989
0.00313755
0.00315384
0.00314481
0.00311
0.00306217
0.00300236
0.00292712
0.00284797
0.00276994
0.00269785
0.00263724
0.0025908
0.00255913
0.00254216
0.00253498
0.00251758
0.00244149
0.00228138
0.00209544
0.00252742
0.00235055
0.0021125
0.00188397
0.00182294
0.00203053
0.00228481
0.00250533
0.00268551
0.00281491
0.00290346
0.00296433
0.00299783
0.00300893
0.00299824
0.00297323
0.00294005
0.00289217
0.00283927
0.00278518
0.00273261
0.00268589
0.0026481
0.00261885
0.00259463
0.00257057
0.0025332
0.00244927
0.0022978
0.00211273
0.0025766
0.00246677
0.00232271
0.00218448
0.00213583
0.0022619
0.00242796
0.00257413
0.00269614
0.00278799
0.00285372
0.00290079
0.00292736
0.00293558
0.00292423
0.00290326
0.00287494
0.00283811
0.00279994
0.00276414
0.00273114
0.00270366
0.00268294
0.00266746
0.00265347
0.0026359
0.00260438
0.00254387
0.00243788
0.00229805
0.00268855
0.00264195
0.00257651
0.00251285
0.00249163
0.00253809
0.00260406
0.00266473
0.00271576
0.00275318
0.00278398
0.00280796
0.00282041
0.00282207
0.00280796
0.00278815
0.00276609
0.00274044
0.00271716
0.00269957
0.0026885
0.00268452
0.00268672
0.00269322
0.00270112
0.00270596
0.00270332
0.00269023
0.00265107
0.00259117
0.000178554
0.000193268
0.000196313
0.000196275
0.000193911
0.000189801
0.000184338
0.000177987
0.000171125
0.000164159
0.000157302
0.000150831
0.000144746
0.000139139
0.000133572
0.000127224
0.000119683
0.000111352
0.00010277
9.4081e-05
8.47584e-05
7.39482e-05
6.8552e-05
6.58451e-05
6.68975e-05
6.90591e-05
7.13708e-05
7.8296e-05
8.84747e-05
9.9372e-05
0.000712178
0.000902639
0.00097247
0.000985774
0.00097381
0.00094825
0.000913676
0.000874291
0.000832281
0.000789356
0.000744742
0.000699234
0.000648825
0.000592315
0.000527153
0.000460812
0.000405263
0.000370687
0.000353563
0.00034686
0.000339209
0.000311221
0.000322941
0.000380865
0.000401731
0.000363335
0.000337263
0.000368702
0.000458034
0.000545311
0.0011622
0.00149825
0.00169143
0.00178864
0.00182646
0.00182467
0.00179094
0.001736
0.00166767
0.00159114
0.00150658
0.00141522
0.00131096
0.00119179
0.00105615
0.000918094
0.000800178
0.000722933
0.000679958
0.000660902
0.000638633
0.00058843
0.000583154
0.000670927
0.000718553
0.000647997
0.000577395
0.000590627
0.000690599
0.000834605
0.00146239
0.00195583
0.00223296
0.00241447
0.00251934
0.00256459
0.00255642
0.00250531
0.00242652
0.00232922
0.0022159
0.00208638
0.0019355
0.00175986
0.00156209
0.00136159
0.00118875
0.00107095
0.00100053
0.000962551
0.00092617
0.000859556
0.000831145
0.000907847
0.000964087
0.000883684
0.000777186
0.000751441
0.000846698
0.0010287
0.00166496
0.00220849
0.00263687
0.00289714
0.00307315
0.00317487
0.00320498
0.00316918
0.00308912
0.00297977
0.00284733
0.00268595
0.00249354
0.00227222
0.00202244
0.00177014
0.00155345
0.00140019
0.00130453
0.00124867
0.00119907
0.00112148
0.00107545
0.00112946
0.00118237
0.0010993
0.000964085
0.000893216
0.000975811
0.00118592
0.00175725
0.00231787
0.00281701
0.00323973
0.00351714
0.00367979
0.0037547
0.00374306
0.00366696
0.00355059
0.0034012
0.0032164
0.00299191
0.00273266
0.00243894
0.00214515
0.00189394
0.00171035
0.001592
0.00151954
0.00145843
0.00137383
0.00131495
0.0013445
0.0013877
0.00130373
0.00114494
0.00103155
0.00109745
0.00133914
0.00177465
0.00236134
0.0029325
0.00343305
0.00385195
0.00409859
0.00422229
0.00424062
0.00417219
0.00405129
0.00388945
0.00368633
0.0034362
0.00314697
0.00281725
0.00249107
0.00221292
0.00200367
0.00186495
0.00177698
0.00170556
0.00161648
0.00154829
0.00155559
0.00158633
0.00150121
0.00132443
0.00117146
0.00121444
0.00148265
0.00172331
0.00234924
0.00299863
0.00357971
0.00406835
0.00444348
0.00461955
0.0046707
0.00461503
0.00449175
0.00432073
0.00410318
0.0038334
0.00352089
0.0031629
0.00281222
0.00251291
0.00228286
0.00212544
0.00202299
0.00194179
0.00184968
0.00177498
0.00176371
0.00178135
0.00169418
0.00150405
0.00131475
0.0013274
0.00161215
0.0016255
0.00228892
0.00301445
0.00368362
0.00424552
0.00468681
0.00495609
0.00504027
0.00500282
0.0048792
0.00470071
0.00447345
0.00418955
0.00385955
0.00348072
0.00311235
0.00279648
0.00254991
0.00237533
0.00225916
0.00216871
0.00207389
0.00199512
0.0019692
0.00197436
0.00188416
0.00168428
0.00146297
0.00143713
0.0017252
0.00150018
0.00219687
0.00298955
0.00374248
0.00438323
0.00487928
0.0052256
0.00535363
0.00534035
0.00521921
0.00503765
0.00480285
0.00451019
0.00416729
0.00377492
0.0033947
0.00306614
0.00280631
0.00261606
0.00248684
0.00238746
0.00229016
0.0022091
0.00217217
0.00216606
0.00207206
0.0018652
0.00161744
0.00154554
0.00182224
0.00136808
0.00208064
0.0029321
0.00376232
0.00447963
0.00503562
0.00541972
0.00562239
0.00562971
0.00551805
0.00533488
0.00509606
0.00479952
0.00444848
0.00404921
0.00366199
0.00332395
0.00305324
0.00284894
0.00270719
0.00259914
0.00249948
0.00241731
0.00237255
0.00235656
0.00225826
0.00204644
0.00177705
0.00165648
0.00190655
0.00123986
0.00194703
0.00284881
0.0037499
0.00453544
0.00515478
0.00558227
0.00583535
0.00587253
0.00577879
0.00559617
0.00535701
0.00506101
0.00470711
0.00430662
0.00391631
0.00357144
0.00329155
0.00307508
0.00292119
0.00280459
0.00270266
0.00262005
0.00257014
0.00254537
0.00244256
0.0022274
0.00194055
0.00177269
0.00198381
0.00112805
0.00180406
0.00274269
0.00370929
0.00456283
0.00523923
0.00571099
0.00599034
0.00607709
0.00600268
0.00582465
0.00558912
0.00529763
0.00494619
0.00454926
0.00415898
0.0038096
0.00352174
0.00329516
0.00312937
0.00300436
0.00290021
0.00281725
0.00276443
0.00273149
0.00262412
0.00240725
0.0021064
0.00189421
0.00206186
0.00105567
0.00166438
0.00261868
0.00364255
0.00456278
0.0052947
0.00581065
0.00611604
0.006242
0.00618803
0.00602512
0.0057958
0.00551101
0.00516746
0.00477801
0.00439031
0.00403855
0.00374412
0.00350882
0.00333167
0.0031985
0.00309208
0.00300837
0.00295392
0.00291317
0.00280138
0.00258385
0.00227273
0.00201811
0.00214938
0.00103072
0.00154876
0.00248446
0.00355347
0.00453746
0.00532605
0.00588579
0.00621861
0.00636884
0.00633963
0.0062026
0.00597918
0.00570156
0.00537118
0.00499212
0.00460922
0.00425728
0.0039578
0.00371488
0.00352724
0.0033863
0.00327727
0.00319226
0.00313633
0.00308788
0.00297197
0.00275478
0.00243763
0.00214656
0.00224687
0.00112303
0.00148095
0.00235245
0.00344859
0.00449024
0.0053349
0.00593621
0.00629868
0.0064657
0.00646467
0.00636147
0.00613948
0.00586803
0.00555523
0.0051887
0.00481283
0.00446307
0.00416036
0.00391092
0.00371408
0.00356617
0.0034532
0.00336666
0.00330857
0.00325209
0.00313254
0.00291707
0.00259869
0.00228429
0.00233602
0.00128127
0.00146687
0.00223822
0.00333678
0.0044257
0.00532315
0.00596495
0.00635648
0.00653726
0.00656861
0.00648998
0.00627409
0.00600802
0.0057135
0.00536215
0.00499582
0.00465092
0.00434723
0.00409264
0.00388867
0.00373371
0.0036162
0.00352784
0.00346596
0.00340089
0.0032785
0.00306669
0.00275204
0.00242519
0.00242773
0.00150711
0.00155669
0.00216385
0.00322778
0.0043492
0.00529297
0.00597286
0.0063912
0.00658619
0.00665399
0.00657506
0.00637609
0.00611693
0.00583532
0.00550409
0.00514997
0.00481297
0.00451112
0.00425345
0.00404381
0.00388229
0.00376046
0.00366962
0.00360165
0.00352774
0.00340395
0.00319841
0.00289254
0.0025643
0.00253186
0.00176171
0.00171323
0.00212747
0.00312989
0.00426596
0.0052462
0.00595963
0.0064002
0.00661532
0.00667673
0.00661249
0.00643337
0.00618373
0.00590988
0.00560236
0.00526367
0.00493815
0.00464155
0.00438185
0.0041688
0.00400266
0.00387683
0.00378172
0.00370635
0.00362443
0.00350171
0.00330587
0.00301341
0.0026963
0.00264101
0.00202783
0.00191579
0.00212113
0.00305129
0.00418032
0.00518352
0.00592376
0.00637453
0.00656296
0.00663387
0.00658623
0.0064284
0.00619403
0.00592476
0.00564087
0.00532218
0.00501243
0.00472195
0.00446311
0.00425022
0.00408165
0.00395139
0.00385094
0.00376888
0.00368163
0.00356386
0.00338202
0.00310502
0.00281661
0.00274493
0.00228623
0.00213027
0.00221279
0.00299963
0.00409368
0.00510235
0.00583213
0.00622235
0.00641872
0.00651153
0.0064804
0.00634048
0.00612689
0.00586618
0.00560148
0.00530967
0.00501721
0.00473385
0.00448201
0.00427214
0.00410209
0.00396856
0.00386445
0.00377847
0.00369078
0.00358301
0.00342009
0.00316269
0.00291042
0.002838
0.00251277
0.00232059
0.00230581
0.00293953
0.00400166
0.00496084
0.00559701
0.00596367
0.00620098
0.00629376
0.00627375
0.00614944
0.00596046
0.00572056
0.00547106
0.00521173
0.00493662
0.00466614
0.00442543
0.00422041
0.00405289
0.00391991
0.00381566
0.00372911
0.00364751
0.00355476
0.00341523
0.00318334
0.00296883
0.0029127
0.00269067
0.00247879
0.00240624
0.00285342
0.00383888
0.00467186
0.00523388
0.00562632
0.00586542
0.00596346
0.00594795
0.00584458
0.00568616
0.00548075
0.00524931
0.00502521
0.00477152
0.0045218
0.00429624
0.00410255
0.00394262
0.00381323
0.0037111
0.00362856
0.00355696
0.00348183
0.00336767
0.0031654
0.00298588
0.00295583
0.00281082
0.00259328
0.00248532
0.00277467
0.00353812
0.00425665
0.00480393
0.00519205
0.00541645
0.00551601
0.00551382
0.00544116
0.00532257
0.00516127
0.00496219
0.00477298
0.00455268
0.00433143
0.00412798
0.00395012
0.00380039
0.0036773
0.00357902
0.00350133
0.00343875
0.00337888
0.00328752
0.00311214
0.0029619
0.00295651
0.00287736
0.00265905
0.00250664
0.00265472
0.00327208
0.00384897
0.00432178
0.00466767
0.00489161
0.00499702
0.00502557
0.00499735
0.00492761
0.00481699
0.00466327
0.00450928
0.00433146
0.00414203
0.00396533
0.00380706
0.00367027
0.00355514
0.00346105
0.00338629
0.00332776
0.00327549
0.00319826
0.00304061
0.00290435
0.00290587
0.00291535
0.00269652
0.0025004
0.00250922
0.00294053
0.00340535
0.0038175
0.00414639
0.00437595
0.00450786
0.00457759
0.00459788
0.00457707
0.00451487
0.00440861
0.0042886
0.00414839
0.00399005
0.00384015
0.00370299
0.00358177
0.00347768
0.00339056
0.00331947
0.00326196
0.00321001
0.0031366
0.00298645
0.00284136
0.00281205
0.00297355
0.00276314
0.00253981
0.00244682
0.0026812
0.00307118