/*--------------------------------*- C++ -*----------------------------------*\
| =========                 |                                                 |
| \\      /  F ield         | OpenFOAM: The Open Source CFD Toolbox           |
|  \\    /   O peration     | Version:  5.0                                   |
|   \\  /    A nd           | Web:      www.OpenFOAM.org                      |
|    \\/     M anipulation  |                                                 |
\*---------------------------------------------------------------------------*/
FoamFile
{
    version     2.0;
    format      ascii;
    class       surfaceScalarField;
    location    "550/porous";
    object      phi;
}
// * * * * * * * * * * * * * * * * * * * * * * * * * * * * * * * * * * * * * //

dimensions      [1 0 -1 0 0 0 0];

internalField   nonuniform List<scalar> 
104700
(
7.63469e-05
2.58379e-06
8.7736e-05
4.58797e-05
1.53403e-06
2.89331e-05
3.349e-05
1.32405e-06
1.10657e-05
2.82039e-05
1.09915e-06
4.18698e-06
2.50882e-05
9.25619e-07
2.19001e-06
2.29209e-05
7.95643e-07
1.37166e-06
2.12657e-05
6.9608e-07
9.59128e-07
1.99381e-05
6.17638e-07
7.10016e-07
1.88402e-05
5.53769e-07
5.44131e-07
1.79117e-05
5.00404e-07
4.28085e-07
1.71129e-05
4.54876e-07
3.4389e-07
1.64163e-05
4.15386e-07
2.81187e-07
1.58021e-05
3.80676e-07
2.33552e-07
1.52555e-05
3.49838e-07
1.96797e-07
1.47652e-05
3.22197e-07
1.68084e-07
1.43225e-05
2.97242e-07
1.4543e-07
1.39205e-05
2.74578e-07
1.27416e-07
1.35536e-05
2.53892e-07
1.12996e-07
1.32173e-05
2.34936e-07
1.01391e-07
1.29078e-05
2.17507e-07
9.2012e-08
1.2622e-05
2.01438e-07
8.44025e-08
1.23572e-05
1.86589e-07
7.82078e-08
1.21112e-05
1.72842e-07
7.31536e-08
1.1882e-05
1.60095e-07
6.90188e-08
1.16682e-05
1.48261e-07
6.56282e-08
1.14681e-05
1.37263e-07
6.28412e-08
1.12805e-05
1.27035e-07
6.05438e-08
1.11043e-05
1.17516e-07
5.86457e-08
1.09386e-05
1.0866e-07
5.70649e-08
1.07824e-05
1.00401e-07
5.57488e-08
1.06351e-05
9.27521e-08
5.46287e-08
1.04958e-05
8.55348e-08
5.36997e-08
1.03639e-05
7.90879e-08
5.2825e-08
1.02393e-05
7.23901e-08
5.22454e-08
1.01201e-05
6.79906e-08
5.12191e-08
1.00093e-05
5.90191e-08
5.17847e-08
9.89812e-06
6.28301e-08
4.83099e-08
9.80282e-06
3.51729e-08
6.01249e-08
9.70018e-06
7.88509e-08
2.37867e-08
-2.61503e-08
3.17482e-07
7.78123e-05
1.68802e-06
8.97501e-05
4.84263e-05
1.30124e-06
2.96188e-05
3.67847e-05
1.23874e-06
1.17269e-05
3.20157e-05
1.08313e-06
4.78499e-06
2.9323e-05
9.49936e-07
2.66843e-06
2.74966e-05
8.41374e-07
1.78063e-06
2.61194e-05
7.5101e-07
1.32234e-06
2.50213e-05
6.75267e-07
1.04048e-06
2.41151e-05
6.10633e-07
8.49259e-07
2.33484e-05
5.54653e-07
7.1252e-07
2.26869e-05
5.05547e-07
6.10777e-07
2.21076e-05
4.62015e-07
5.32744e-07
2.15937e-05
4.23087e-07
4.71409e-07
2.11333e-05
3.88025e-07
4.222e-07
2.07173e-05
3.56253e-07
3.82026e-07
2.03385e-05
3.27318e-07
3.48722e-07
1.99914e-05
3.00857e-07
3.20742e-07
1.96718e-05
2.76578e-07
2.96949e-07
1.9376e-05
2.54237e-07
2.765e-07
1.91011e-05
2.33635e-07
2.58749e-07
1.88448e-05
2.14602e-07
2.43198e-07
1.86049e-05
1.96993e-07
2.29461e-07
1.83798e-05
1.80686e-07
2.17234e-07
1.81681e-05
1.65571e-07
2.06269e-07
1.79684e-05
1.51555e-07
1.96371e-07
1.77797e-05
1.38554e-07
1.8738e-07
1.76011e-05
1.26496e-07
1.79165e-07
1.74317e-05
1.15311e-07
1.71618e-07
1.72708e-05
1.04951e-07
1.64648e-07
1.71176e-05
9.53427e-08
1.58178e-07
1.69717e-05
8.64981e-08
1.52151e-07
1.68326e-05
7.82266e-08
1.46493e-07
1.66995e-05
7.08891e-08
1.41211e-07
1.65724e-05
6.33726e-08
1.36139e-07
1.64504e-05
5.84766e-08
1.31575e-07
1.63343e-05
4.83586e-08
1.26777e-07
1.62201e-05
5.36485e-08
1.23382e-07
1.61164e-05
1.75062e-08
1.21349e-07
1.60075e-05
8.74831e-08
1.00247e-07
-1.09215e-07
3.45239e-07
7.76222e-05
1.22991e-06
8.95025e-05
4.84082e-05
1.23644e-06
2.92788e-05
3.69389e-05
1.20918e-06
1.14989e-05
3.23082e-05
1.07743e-06
4.63645e-06
2.97455e-05
9.49173e-07
2.56345e-06
2.80398e-05
8.39594e-07
1.70742e-06
2.67759e-05
7.46495e-07
1.26841e-06
2.5785e-05
6.68118e-07
9.98027e-07
2.49806e-05
6.01613e-07
8.13427e-07
2.43105e-05
5.44571e-07
6.80247e-07
2.37408e-05
4.95077e-07
5.80162e-07
2.32485e-05
4.5165e-07
5.02615e-07
2.28174e-05
4.13161e-07
4.41067e-07
2.24354e-05
3.78739e-07
3.91248e-07
2.20937e-05
3.47712e-07
3.50266e-07
2.17854e-05
3.19556e-07
3.16089e-07
2.15051e-05
2.93859e-07
2.87251e-07
2.12487e-05
2.70294e-07
2.62671e-07
2.10128e-05
2.48599e-07
2.41535e-07
2.07947e-05
2.28562e-07
2.23213e-07
2.05921e-05
2.10009e-07
2.07222e-07
2.04031e-05
1.92797e-07
1.93173e-07
2.02262e-05
1.76804e-07
1.80756e-07
2.00601e-05
1.61928e-07
1.69724e-07
1.99037e-05
1.48082e-07
1.59873e-07
1.97561e-05
1.35189e-07
1.51032e-07
1.96163e-05
1.23186e-07
1.43063e-07
1.94838e-05
1.12013e-07
1.3585e-07
1.93578e-05
1.01629e-07
1.29295e-07
1.92378e-05
9.19724e-08
1.23311e-07
1.91234e-05
8.30628e-08
1.17835e-07
1.90142e-05
7.47216e-08
1.12787e-07
1.89096e-05
6.73156e-08
1.0816e-07
1.88094e-05
5.97586e-08
1.03801e-07
1.87131e-05
5.48047e-08
9.99584e-08
1.86208e-05
4.47853e-08
9.58675e-08
1.85309e-05
4.98741e-08
9.36507e-08
1.84462e-05
1.41893e-08
8.80079e-08
1.83602e-05
8.49617e-08
8.85952e-08
-1.22904e-07
1.98504e-07
7.73814e-05
8.69141e-07
8.96461e-05
4.81319e-05
1.03757e-06
2.94483e-05
3.66931e-05
1.04579e-06
1.16022e-05
3.21097e-05
9.57493e-07
4.70331e-06
2.95979e-05
8.57848e-07
2.60315e-06
2.79412e-05
7.66352e-07
1.72993e-06
2.67235e-05
6.85063e-07
1.27908e-06
2.57762e-05
6.14509e-07
1.00093e-06
2.50129e-05
5.53423e-07
8.11467e-07
2.43818e-05
5.00329e-07
6.75354e-07
2.38494e-05
4.5387e-07
5.7361e-07
2.33929e-05
4.12902e-07
4.95229e-07
2.29962e-05
3.76493e-07
4.33366e-07
2.26475e-05
3.43895e-07
3.83547e-07
2.2338e-05
3.14512e-07
3.42738e-07
2.20609e-05
2.87866e-07
3.08819e-07
2.18109e-05
2.63574e-07
2.80266e-07
2.15839e-05
2.41328e-07
2.55957e-07
2.13766e-05
2.20878e-07
2.35058e-07
2.11862e-05
2.02019e-07
2.16929e-07
2.10105e-05
1.84584e-07
2.01075e-07
2.08478e-05
1.68433e-07
1.87111e-07
2.06964e-05
1.5345e-07
1.74729e-07
2.05551e-05
1.39536e-07
1.63682e-07
2.04228e-05
1.26605e-07
1.53771e-07
2.02986e-05
1.14587e-07
1.44833e-07
2.01816e-05
1.03419e-07
1.36734e-07
2.00712e-05
9.30459e-08
1.29362e-07
1.99668e-05
8.34311e-08
1.22624e-07
1.98678e-05
7.45169e-08
1.1644e-07
1.97738e-05
6.6328e-08
1.10747e-07
1.96843e-05
5.86994e-08
1.05477e-07
1.95991e-05
5.1985e-08
1.00615e-07
1.95176e-05
4.51835e-08
9.60329e-08
1.94396e-05
4.08783e-08
9.1917e-08
1.93647e-05
3.2076e-08
8.76191e-08
1.92923e-05
3.71886e-08
8.50605e-08
1.92226e-05
6.71015e-09
7.72395e-08
1.91497e-05
7.0026e-08
8.78428e-08
-1.01099e-07
1.00621e-07
7.72584e-05
6.76336e-07
8.96011e-05
4.79939e-05
9.27346e-07
2.93747e-05
3.65735e-05
9.71905e-07
1.14944e-05
3.20109e-05
9.16792e-07
4.6033e-06
2.95174e-05
8.35223e-07
2.51607e-06
2.78758e-05
7.5205e-07
1.65594e-06
2.66708e-05
6.7422e-07
1.2158e-06
2.57347e-05
6.0465e-07
9.45996e-07
2.49817e-05
5.43508e-07
7.62924e-07
2.43603e-05
4.90044e-07
6.31637e-07
2.38374e-05
4.43242e-07
5.33522e-07
2.33904e-05
4.02096e-07
4.57868e-07
2.30031e-05
3.6571e-07
3.98065e-07
2.26638e-05
3.33326e-07
3.49814e-07
2.23638e-05
3.04314e-07
3.10217e-07
2.20963e-05
2.78162e-07
2.7725e-07
2.18559e-05
2.54452e-07
2.49464e-07
2.16386e-05
2.32846e-07
2.25791e-07
2.1441e-05
2.13067e-07
2.05436e-07
2.12603e-05
1.94894e-07
1.87789e-07
2.10944e-05
1.78141e-07
1.72377e-07
2.09413e-05
1.62658e-07
1.5883e-07
2.07996e-05
1.4832e-07
1.46851e-07
2.06679e-05
1.35021e-07
1.36198e-07
2.05452e-05
1.22674e-07
1.26682e-07
2.04304e-05
1.11203e-07
1.18143e-07
2.03229e-05
1.00548e-07
1.10447e-07
2.02218e-05
9.06528e-08
1.03487e-07
2.01266e-05
8.14822e-08
9.71663e-08
2.00367e-05
7.29831e-08
9.14094e-08
1.99517e-05
6.51796e-08
8.6151e-08
1.98711e-05
5.79268e-08
8.13267e-08
1.97946e-05
5.15535e-08
7.69067e-08
1.97218e-05
4.51806e-08
7.28003e-08
1.96525e-05
4.11133e-08
6.91e-08
1.95859e-05
3.33615e-08
6.53687e-08
1.95224e-05
3.75882e-08
6.30733e-08
1.94606e-05
1.34018e-08
5.50843e-08
1.93953e-05
6.37083e-08
7.16671e-08
-6.0331e-08
2.79923e-08
7.71839e-05
5.19234e-07
8.96399e-05
4.78783e-05
7.76906e-07
2.9456e-05
3.64421e-05
8.3619e-07
1.1572e-05
3.18787e-05
8.04959e-07
4.67516e-06
2.93914e-05
7.43187e-07
2.57942e-06
2.77584e-05
6.74627e-07
1.71039e-06
2.65629e-05
6.07811e-07
1.26191e-06
2.56361e-05
5.46582e-07
9.84848e-07
2.48919e-05
4.91928e-07
7.95749e-07
2.42788e-05
4.43664e-07
6.59541e-07
2.37634e-05
4.01152e-07
5.57446e-07
2.33233e-05
3.63639e-07
4.78582e-07
2.29424e-05
3.30399e-07
4.16183e-07
2.26091e-05
3.00787e-07
3.65825e-07
2.23147e-05
2.74252e-07
3.24501e-07
2.20524e-05
2.50337e-07
2.90106e-07
2.18171e-05
2.28666e-07
2.61121e-07
2.16046e-05
2.08929e-07
2.36433e-07
2.14116e-05
1.90874e-07
2.15201e-07
2.12354e-05
1.74296e-07
1.96786e-07
2.10738e-05
1.59025e-07
1.80692e-07
2.0925e-05
1.44922e-07
1.66528e-07
2.07875e-05
1.31871e-07
1.53985e-07
2.06599e-05
1.19774e-07
1.42814e-07
2.05412e-05
1.08552e-07
1.32812e-07
2.04305e-05
9.81364e-08
1.23813e-07
2.03269e-05
8.84707e-08
1.1568e-07
2.02297e-05
7.95055e-08
1.08299e-07
2.01384e-05
7.12098e-08
1.01577e-07
2.00524e-05
6.3538e-08
9.5433e-08
1.99713e-05
5.65158e-08
8.97975e-08
1.98946e-05
5.00199e-08
8.4612e-08
1.98219e-05
4.43501e-08
7.98341e-08
1.9753e-05
3.87708e-08
7.53994e-08
1.96875e-05
3.52723e-08
7.13213e-08
1.96245e-05
2.89704e-08
6.73564e-08
1.9565e-05
3.26493e-08
6.44811e-08
1.95072e-05
1.51049e-08
5.60729e-08
1.94428e-05
5.42307e-08
7.38574e-08
-2.79139e-08
2.86884e-09
7.71344e-05
4.18799e-07
8.96327e-05
4.78011e-05
6.65806e-07
2.94444e-05
3.63597e-05
7.38728e-07
1.15389e-05
3.18013e-05
7.28504e-07
4.63483e-06
2.93215e-05
6.84088e-07
2.53887e-06
2.76961e-05
6.27792e-07
1.67223e-06
2.65073e-05
5.69486e-07
1.22714e-06
2.55861e-05
5.14088e-07
9.53664e-07
2.48466e-05
4.63518e-07
7.67969e-07
2.42372e-05
4.18245e-07
6.34799e-07
2.3725e-05
3.78059e-07
5.35319e-07
2.32875e-05
3.42468e-07
4.58663e-07
2.29089e-05
3.10905e-07
3.98101e-07
2.25776e-05
2.82818e-07
3.49261e-07
2.22849e-05
2.57707e-07
3.09187e-07
2.20243e-05
2.35143e-07
2.75819e-07
2.17905e-05
2.14762e-07
2.47685e-07
2.15795e-05
1.96262e-07
2.23701e-07
2.13879e-05
1.79393e-07
2.03057e-07
2.12131e-05
1.6395e-07
1.85138e-07
2.10529e-05
1.49762e-07
1.69466e-07
2.09055e-05
1.36689e-07
1.55667e-07
2.07693e-05
1.24615e-07
1.43444e-07
2.06431e-05
1.13443e-07
1.32556e-07
2.05257e-05
1.03093e-07
1.22811e-07
2.04163e-05
9.34965e-08
1.14047e-07
2.0314e-05
8.45993e-08
1.06134e-07
2.02182e-05
7.63539e-08
9.89623e-08
2.01283e-05
6.87303e-08
9.24393e-08
2.00436e-05
6.16878e-08
8.64873e-08
1.99639e-05
5.52493e-08
8.10384e-08
1.98885e-05
4.9315e-08
7.60404e-08
1.98173e-05
4.41472e-08
7.14394e-08
1.97497e-05
3.9154e-08
6.72018e-08
1.96857e-05
3.59912e-08
6.32688e-08
1.96243e-05
3.08351e-08
5.95775e-08
1.95665e-05
3.36841e-08
5.66993e-08
1.95115e-05
2.13878e-08
4.87288e-08
1.94491e-05
5.03094e-08
6.63301e-08
-1.97065e-09
-1.65581e-08
7.71072e-05
3.33323e-07
8.9645e-05
4.77479e-05
5.50838e-07
2.94742e-05
3.62918e-05
6.23613e-07
1.15713e-05
3.17276e-05
6.24066e-07
4.66859e-06
2.92469e-05
5.91962e-07
2.57285e-06
2.76232e-05
5.46644e-07
1.70482e-06
2.64375e-05
4.97718e-07
1.25747e-06
2.55201e-05
4.50164e-07
9.8138e-07
2.47843e-05
4.06178e-07
7.93048e-07
2.41787e-05
3.66494e-07
6.57388e-07
2.367e-05
3.31118e-07
5.55649e-07
2.32357e-05
2.99725e-07
4.7699e-07
2.28601e-05
2.71867e-07
4.14685e-07
2.25315e-05
2.47081e-07
3.64337e-07
2.22413e-05
2.24938e-07
3.22967e-07
2.19829e-05
2.05059e-07
2.88489e-07
2.17511e-05
1.87122e-07
2.594e-07
2.15419e-05
1.70856e-07
2.34593e-07
2.13521e-05
1.56037e-07
2.13238e-07
2.11788e-05
1.42481e-07
1.94697e-07
2.10201e-05
1.30035e-07
1.7848e-07
2.0874e-05
1.18574e-07
1.64199e-07
2.07391e-05
1.07994e-07
1.51544e-07
2.0614e-05
9.821e-08
1.40268e-07
2.04978e-05
8.915e-08
1.30166e-07
2.03895e-05
8.07546e-08
1.21077e-07
2.02882e-05
7.29761e-08
1.1286e-07
2.01934e-05
6.57735e-08
1.05405e-07
2.01044e-05
5.91224e-08
9.8613e-08
2.00207e-05
5.29896e-08
9.24065e-08
1.99418e-05
4.73977e-08
8.67149e-08
1.98674e-05
4.22701e-08
8.14828e-08
1.97971e-05
3.7833e-08
7.66506e-08
1.97304e-05
3.36304e-08
7.22043e-08
1.96674e-05
3.10065e-08
6.80265e-08
1.96069e-05
2.70757e-08
6.41891e-08
1.95502e-05
2.94748e-08
6.09128e-08
1.94971e-05
2.15141e-08
5.29478e-08
1.94344e-05
4.33716e-08
6.9692e-08
1.17028e-08
-1.89256e-08
7.70866e-05
2.69007e-07
8.96444e-05
4.77072e-05
4.56066e-07
2.94742e-05
3.62416e-05
5.26899e-07
1.15623e-05
3.16757e-05
5.36106e-07
4.65386e-06
2.91969e-05
5.15226e-07
2.55554e-06
2.75768e-05
4.80367e-07
1.68639e-06
2.63951e-05
4.40407e-07
1.23897e-06
2.54816e-05
4.00232e-07
9.63466e-07
2.47494e-05
3.62255e-07
7.76108e-07
2.41468e-05
3.27491e-07
6.41601e-07
2.36407e-05
2.96198e-07
5.41065e-07
2.32086e-05
2.68254e-07
4.63578e-07
2.28347e-05
2.43365e-07
4.02366e-07
2.25076e-05
2.21179e-07
3.53015e-07
2.22186e-05
2.01349e-07
3.12539e-07
2.19613e-05
1.83553e-07
2.78852e-07
2.17304e-05
1.67513e-07
2.50457e-07
2.15221e-05
1.52989e-07
2.26259e-07
2.13329e-05
1.39779e-07
2.05436e-07
2.11603e-05
1.27716e-07
1.87362e-07
2.10021e-05
1.16661e-07
1.71554e-07
2.08565e-05
1.06497e-07
1.57633e-07
2.07221e-05
9.71289e-08
1.45298e-07
2.05975e-05
8.84777e-08
1.34305e-07
2.04818e-05
8.04764e-08
1.24458e-07
2.03738e-05
7.30708e-08
1.15599e-07
2.0273e-05
6.62164e-08
1.07593e-07
2.01786e-05
5.9876e-08
1.0033e-07
2.009e-05
5.4027e-08
9.37167e-08
2.00066e-05
4.86411e-08
8.76779e-08
1.99281e-05
4.37386e-08
8.21416e-08
1.98541e-05
3.92612e-08
7.70613e-08
1.97842e-05
3.53962e-08
7.23668e-08
1.97179e-05
3.18049e-08
6.80681e-08
1.96554e-05
2.95445e-08
6.40011e-08
1.95956e-05
2.64989e-08
6.03531e-08
1.95397e-05
2.83298e-08
5.70902e-08
1.94884e-05
2.32604e-08
4.95334e-08
1.94268e-05
3.9191e-08
6.57454e-08
2.01951e-08
-2.5478e-08
7.7075e-05
2.11937e-07
8.96488e-05
4.76803e-05
3.65207e-07
2.94855e-05
3.62044e-05
4.27615e-07
1.15751e-05
3.16333e-05
4.39349e-07
4.66786e-06
2.91524e-05
4.25255e-07
2.57086e-06
2.75322e-05
3.98263e-07
1.70232e-06
2.63516e-05
3.66073e-07
1.25491e-06
2.54398e-05
3.33062e-07
9.79005e-07
2.47096e-05
3.01508e-07
7.9096e-07
2.4109e-05
2.72444e-07
6.55608e-07
2.36049e-05
2.46202e-07
5.54154e-07
2.31747e-05
2.22744e-07
4.75738e-07
2.28025e-05
2.01854e-07
4.13628e-07
2.2477e-05
1.83251e-07
3.63432e-07
2.21896e-05
1.66647e-07
3.22177e-07
2.19336e-05
1.51769e-07
2.87783e-07
2.17039e-05
1.38379e-07
2.58751e-07
2.14967e-05
1.26271e-07
2.33982e-07
2.13085e-05
1.15273e-07
2.12651e-07
2.11369e-05
1.05239e-07
1.94125e-07
2.09796e-05
9.60515e-08
1.77914e-07
2.08348e-05
8.76102e-08
1.63634e-07
2.07011e-05
7.98343e-08
1.50978e-07
2.05773e-05
7.26561e-08
1.39697e-07
2.04621e-05
6.60199e-08
1.29591e-07
2.03548e-05
5.98804e-08
1.20495e-07
2.02546e-05
5.42006e-08
1.12274e-07
2.01607e-05
4.895e-08
1.04815e-07
2.00726e-05
4.41108e-08
9.80205e-08
1.99898e-05
3.96617e-08
9.1811e-08
1.99118e-05
3.56208e-08
8.61163e-08
1.98382e-05
3.19476e-08
8.08879e-08
1.97687e-05
2.8795e-08
7.60504e-08
1.9703e-05
2.59203e-08
7.16223e-08
1.9641e-05
2.41384e-08
6.74064e-08
1.95819e-05
2.19444e-08
6.36696e-08
1.95266e-05
2.34634e-08
6.01696e-08
1.94766e-05
2.05519e-08
5.2641e-08
1.9415e-05
3.2516e-08
6.83411e-08
2.16981e-08
-2.46855e-08
7.70659e-05
1.63594e-07
8.96492e-05
4.76591e-05
2.84859e-07
2.94871e-05
3.61757e-05
3.3775e-07
1.15733e-05
3.16013e-05
3.50611e-07
4.66307e-06
2.91199e-05
3.4239e-07
2.56427e-06
2.75008e-05
3.22914e-07
1.69442e-06
2.63223e-05
2.98448e-07
1.2462e-06
2.54128e-05
2.72676e-07
9.69888e-07
2.46849e-05
2.47616e-07
7.8177e-07
2.40865e-05
2.24259e-07
6.4658e-07
2.35843e-05
2.0299e-07
5.45445e-07
2.31557e-05
1.8386e-07
4.67443e-07
2.2785e-05
1.66751e-07
4.05796e-07
2.24607e-05
1.51471e-07
3.5608e-07
2.21743e-05
1.37805e-07
3.153e-07
2.19191e-05
1.25548e-07
2.8136e-07
2.16902e-05
1.1451e-07
2.52755e-07
2.14836e-05
1.04531e-07
2.28382e-07
2.1296e-05
9.5468e-08
2.07411e-07
2.11248e-05
8.72055e-08
1.89212e-07
2.09679e-05
7.9645e-08
1.73298e-07
2.08235e-05
7.27046e-08
1.59284e-07
2.06902e-05
6.63168e-08
1.46867e-07
2.05666e-05
6.04252e-08
1.35802e-07
2.04518e-05
5.49833e-08
1.25891e-07
2.03447e-05
4.99526e-08
1.16973e-07
2.02447e-05
4.53024e-08
1.08912e-07
2.0151e-05
4.10073e-08
1.01597e-07
2.00632e-05
3.70521e-08
9.49369e-08
1.99806e-05
3.34203e-08
8.8851e-08
1.99028e-05
3.01259e-08
8.32706e-08
1.98294e-05
2.71413e-08
7.81489e-08
1.97602e-05
2.45853e-08
7.34083e-08
1.96948e-05
2.22896e-08
6.90824e-08
1.96331e-05
2.08571e-08
6.49438e-08
1.95745e-05
1.92497e-08
6.13286e-08
1.95197e-05
2.03696e-08
5.78523e-08
1.9471e-05
1.87094e-08
5.05769e-08
1.94103e-05
2.72153e-08
6.59961e-08
2.10377e-08
-2.80287e-08
7.70605e-05
1.18922e-07
8.96509e-05
4.76453e-05
2.08342e-07
2.94917e-05
3.61555e-05
2.4902e-07
1.15785e-05
3.15776e-05
2.59885e-07
4.66868e-06
2.90944e-05
2.54857e-07
2.5707e-06
2.74749e-05
2.40971e-07
1.7015e-06
2.62966e-05
2.22998e-07
1.25368e-06
2.53879e-05
2.038e-07
9.77572e-07
2.46611e-05
1.8499e-07
7.89473e-07
2.40638e-05
1.67388e-07
6.54151e-07
2.35627e-05
1.51334e-07
5.52775e-07
2.31352e-05
1.36892e-07
4.7446e-07
2.27655e-05
1.23987e-07
4.12455e-07
2.24421e-05
1.12479e-07
3.62362e-07
2.21565e-05
1.02205e-07
3.21202e-07
2.19022e-05
9.30071e-08
2.86888e-07
2.1674e-05
8.47406e-08
2.57929e-07
2.14681e-05
7.72778e-08
2.33222e-07
2.12811e-05
7.05112e-08
2.11943e-07
2.11105e-05
6.43491e-08
1.93462e-07
2.09541e-05
5.87158e-08
1.77288e-07
2.08102e-05
5.3549e-08
1.63039e-07
2.06773e-05
4.87963e-08
1.50408e-07
2.05542e-05
4.44147e-08
1.39151e-07
2.04397e-05
4.03691e-08
1.29064e-07
2.03331e-05
3.66305e-08
1.19986e-07
2.02334e-05
3.31755e-08
1.11781e-07
2.01401e-05
2.9986e-08
1.04335e-07
2.00526e-05
2.70508e-08
9.75526e-08
1.99703e-05
2.43588e-08
9.13574e-08
1.98928e-05
2.19208e-08
8.56723e-08
1.98198e-05
1.97197e-08
8.04564e-08
1.97509e-05
1.78435e-08
7.56256e-08
1.96858e-05
1.61828e-08
7.1218e-08
1.96245e-05
1.51623e-08
6.69893e-08
1.95663e-05
1.4101e-08
6.33152e-08
1.9512e-05
1.49635e-08
5.97056e-08
1.94641e-05
1.41718e-08
5.24317e-08
1.94035e-05
2.02233e-08
6.759e-08
1.69795e-08
-2.73255e-08
7.70565e-05
7.79159e-08
8.96512e-05
4.7635e-05
1.3693e-07
2.94929e-05
3.61408e-05
1.64867e-07
1.15784e-05
3.15604e-05
1.72952e-07
4.66733e-06
2.90763e-05
1.70477e-07
2.56847e-06
2.74569e-05
1.61877e-07
1.6985e-06
2.62795e-05
1.50343e-07
1.25007e-06
2.53719e-05
1.37812e-07
9.73536e-07
2.46463e-05
1.25401e-07
7.85171e-07
2.40503e-05
1.13697e-07
6.49725e-07
2.35503e-05
1.02959e-07
5.48337e-07
2.31239e-05
9.32553e-08
4.70094e-07
2.27551e-05
8.45519e-08
4.08222e-07
2.24325e-05
7.67674e-08
3.58303e-07
2.21476e-05
6.98022e-08
3.17339e-07
2.18938e-05
6.35553e-08
2.83233e-07
2.16661e-05
5.79337e-08
2.54484e-07
2.14606e-05
5.28542e-08
2.29982e-07
2.12739e-05
4.8246e-08
2.08896e-07
2.11036e-05
4.40485e-08
1.90599e-07
2.09475e-05
4.02111e-08
1.74596e-07
2.08039e-05
3.66919e-08
1.60503e-07
2.06712e-05
3.34558e-08
1.48018e-07
2.05483e-05
3.04736e-08
1.36892e-07
2.0434e-05
2.77214e-08
1.26925e-07
2.03275e-05
2.5179e-08
1.17956e-07
2.0228e-05
2.28313e-08
1.0985e-07
2.01348e-05
2.06649e-08
1.02494e-07
2.00474e-05
1.86726e-08
9.57946e-08
1.99652e-05
1.68464e-08
8.96736e-08
1.98879e-05
1.51942e-08
8.40595e-08
1.9815e-05
1.37057e-08
7.89071e-08
1.97463e-05
1.24376e-08
7.41358e-08
1.96813e-05
1.13247e-08
6.97889e-08
1.96203e-05
1.06363e-08
6.56047e-08
1.95624e-05
9.96208e-09
6.19988e-08
1.95084e-05
1.05049e-08
5.84087e-08
1.94612e-05
1.01259e-08
5.12686e-08
1.94013e-05
1.38814e-08
6.62879e-08
1.21886e-08
-2.9136e-08
7.70544e-05
3.84662e-08
8.96517e-05
4.76291e-05
6.76207e-08
2.94946e-05
3.61318e-05
8.17628e-08
1.15803e-05
3.15496e-05
8.58603e-08
4.66932e-06
2.90645e-05
8.47275e-08
2.57081e-06
2.74448e-05
8.04675e-08
1.70115e-06
2.62675e-05
7.46978e-08
1.25298e-06
2.53602e-05
6.84021e-08
9.76629e-07
2.46351e-05
6.21542e-08
7.88373e-07
2.40396e-05
5.62591e-08
6.52966e-07
2.35401e-05
5.08538e-08
5.51556e-07
2.31142e-05
4.59753e-08
4.73243e-07
2.27459e-05
4.16079e-08
4.11267e-07
2.24237e-05
3.771e-08
3.61216e-07
2.21392e-05
3.42304e-08
3.20106e-07
2.18858e-05
3.11163e-08
2.8585e-07
2.16584e-05
2.83198e-08
2.56947e-07
2.14532e-05
2.5798e-08
2.32295e-07
2.12668e-05
2.35138e-08
2.11067e-07
2.10968e-05
2.14361e-08
1.92633e-07
2.0941e-05
1.95389e-08
1.76505e-07
2.07976e-05
1.78006e-08
1.62296e-07
2.06651e-05
1.62029e-08
1.49701e-07
2.05424e-05
1.47319e-08
1.38477e-07
2.04283e-05
1.33745e-08
1.28421e-07
2.0322e-05
1.21214e-08
1.1937e-07
2.02227e-05
1.09646e-08
1.1119e-07
2.01297e-05
9.89769e-09
1.03766e-07
2.00425e-05
8.91706e-09
9.70043e-08
1.99605e-05
8.01904e-09
9.08265e-08
1.98833e-05
7.2076e-09
8.51594e-08
1.98105e-05
6.47794e-09
7.99602e-08
1.9742e-05
5.85848e-09
7.51413e-08
1.96772e-05
5.31966e-09
7.07539e-08
1.96164e-05
4.99175e-09
6.65264e-08
1.95587e-05
4.68383e-09
6.28913e-08
1.9505e-05
4.96892e-09
5.92373e-08
1.94582e-05
4.85252e-09
5.20932e-08
1.93984e-05
6.72502e-09
6.69898e-08
6.05559e-09
-2.88589e-08
7.70533e-05
-2.70609e-14
8.96518e-05
4.76259e-05
4.85831e-14
2.9495e-05
3.61273e-05
-1.99815e-13
1.15804e-05
3.15442e-05
-3.61228e-16
4.66896e-06
2.90587e-05
1.212e-13
2.57015e-06
2.7439e-05
-7.80054e-14
1.70023e-06
2.62619e-05
-2.93704e-13
1.25181e-06
2.5355e-05
-1.20292e-13
9.75264e-07
2.46303e-05
-4.00049e-14
7.86864e-07
2.40352e-05
8.8522e-14
6.51361e-07
2.35362e-05
-1.556e-13
5.49897e-07
2.31106e-05
-2.25878e-13
4.71567e-07
2.27426e-05
-1.5194e-14
4.09599e-07
2.24207e-05
2.12031e-13
3.59577e-07
2.21364e-05
-6.03012e-14
3.18511e-07
2.18832e-05
-1.87934e-13
2.84308e-07
2.16561e-05
-3.32425e-13
2.55463e-07
2.1451e-05
-7.84779e-14
2.30871e-07
2.12648e-05
-6.48688e-14
2.09706e-07
2.10949e-05
5.28762e-14
1.91331e-07
2.09392e-05
-5.14288e-14
1.7526e-07
2.07959e-05
-1.36461e-13
1.61106e-07
2.06635e-05
-8.74745e-15
1.48564e-07
2.05409e-05
-1.86587e-13
1.37387e-07
2.04269e-05
-1.20271e-13
1.27376e-07
2.03206e-05
-3.32181e-13
1.18368e-07
2.02214e-05
-1.30996e-13
1.10226e-07
2.01284e-05
-1.19326e-13
1.02838e-07
2.00412e-05
1.70609e-15
9.61096e-08
1.99593e-05
-2.54922e-13
8.99634e-08
1.98822e-05
-5.10528e-14
8.43269e-08
1.98095e-05
3.98372e-14
7.9155e-08
1.9741e-05
-1.14378e-13
7.43623e-08
1.96763e-05
-8.7967e-14
7.00011e-08
1.96155e-05
-9.97434e-14
6.57948e-08
1.9558e-05
-3.90922e-13
6.2187e-08
1.95044e-05
-2.42329e-13
5.85447e-08
1.94578e-05
-2.32324e-13
5.14524e-08
1.93983e-05
-1.51421e-13
6.62776e-08
-1.09295e-13
-2.97523e-08
7.70533e-05
-3.84663e-08
8.96518e-05
4.76259e-05
-6.76211e-08
2.9495e-05
3.61273e-05
-8.17629e-08
1.15804e-05
3.15442e-05
-8.58606e-08
4.66896e-06
2.90587e-05
-8.47276e-08
2.57016e-06
2.7439e-05
-8.04676e-08
1.70023e-06
2.62619e-05
-7.4698e-08
1.25181e-06
2.5355e-05
-6.84022e-08
9.75264e-07
2.46303e-05
-6.21542e-08
7.86864e-07
2.40352e-05
-5.62593e-08
6.51361e-07
2.35362e-05
-5.08538e-08
5.49898e-07
2.31106e-05
-4.59755e-08
4.71567e-07
2.27426e-05
-4.16081e-08
4.09599e-07
2.24207e-05
-3.77102e-08
3.59577e-07
2.21364e-05
-3.42307e-08
3.18511e-07
2.18832e-05
-3.11168e-08
2.84308e-07
2.16561e-05
-2.83202e-08
2.55463e-07
2.1451e-05
-2.57979e-08
2.30872e-07
2.12648e-05
-2.35138e-08
2.09706e-07
2.10949e-05
-2.14361e-08
1.91332e-07
2.09392e-05
-1.95392e-08
1.7526e-07
2.07959e-05
-1.78007e-08
1.61106e-07
2.06635e-05
-1.62031e-08
1.48564e-07
2.05409e-05
-1.47317e-08
1.37387e-07
2.04269e-05
-1.33747e-08
1.27376e-07
2.03206e-05
-1.21215e-08
1.18367e-07
2.02214e-05
-1.09648e-08
1.10226e-07
2.01284e-05
-9.8978e-09
1.02839e-07
2.00412e-05
-8.91708e-09
9.61101e-08
1.99593e-05
-8.01885e-09
8.99639e-08
1.98822e-05
-7.20753e-09
8.43265e-08
1.98095e-05
-6.47791e-09
7.9156e-08
1.9741e-05
-5.85871e-09
7.43623e-08
1.96763e-05
-5.31995e-09
6.99996e-08
1.96155e-05
-4.99196e-09
6.57932e-08
1.9558e-05
-4.68394e-09
6.21866e-08
1.95044e-05
-4.96916e-09
5.85448e-08
1.94578e-05
-4.85281e-09
5.14526e-08
1.93983e-05
-6.72522e-09
6.62774e-08
-6.0556e-09
-2.9752e-08
7.70544e-05
-7.79161e-08
8.96517e-05
4.76291e-05
-1.3693e-07
2.94946e-05
3.61318e-05
-1.64867e-07
1.15803e-05
3.15496e-05
-1.72951e-07
4.66932e-06
2.90645e-05
-1.70478e-07
2.5708e-06
2.74448e-05
-1.61877e-07
1.70115e-06
2.62675e-05
-1.50343e-07
1.25298e-06
2.53602e-05
-1.37812e-07
9.76629e-07
2.46351e-05
-1.25401e-07
7.88373e-07
2.40396e-05
-1.13697e-07
6.52966e-07
2.35401e-05
-1.0296e-07
5.51556e-07
2.31142e-05
-9.32553e-08
4.73243e-07
2.27459e-05
-8.45523e-08
4.11267e-07
2.24237e-05
-7.67679e-08
3.61216e-07
2.21392e-05
-6.98025e-08
3.20106e-07
2.18858e-05
-6.35556e-08
2.8585e-07
2.16584e-05
-5.79338e-08
2.56947e-07
2.14532e-05
-5.28543e-08
2.32294e-07
2.12668e-05
-4.82462e-08
2.11067e-07
2.10968e-05
-4.40487e-08
1.92633e-07
2.0941e-05
-4.02112e-08
1.76504e-07
2.07976e-05
-3.6692e-08
1.62295e-07
2.06651e-05
-3.3456e-08
1.49702e-07
2.05424e-05
-3.0474e-08
1.38476e-07
2.04283e-05
-2.77215e-08
1.28421e-07
2.0322e-05
-2.51793e-08
1.19371e-07
2.02227e-05
-2.28314e-08
1.11189e-07
2.01297e-05
-2.06648e-08
1.03766e-07
2.00425e-05
-1.86726e-08
9.70048e-08
1.99605e-05
-1.68464e-08
9.08265e-08
1.98833e-05
-1.51944e-08
8.51604e-08
1.98105e-05
-1.37056e-08
7.99616e-08
1.9742e-05
-1.24372e-08
7.51415e-08
1.96772e-05
-1.13248e-08
7.07547e-08
1.96164e-05
-1.06364e-08
6.65266e-08
1.95587e-05
-9.9623e-09
6.28908e-08
1.9505e-05
-1.0505e-08
5.92373e-08
1.94582e-05
-1.01261e-08
5.20929e-08
1.93984e-05
-1.38813e-08
6.699e-08
-1.21887e-08
-2.88597e-08
7.70565e-05
-1.18922e-07
8.96512e-05
4.7635e-05
-2.08343e-07
2.94929e-05
3.61408e-05
-2.4902e-07
1.15784e-05
3.15604e-05
-2.59885e-07
4.66733e-06
2.90763e-05
-2.54857e-07
2.56847e-06
2.74569e-05
-2.40971e-07
1.6985e-06
2.62795e-05
-2.22998e-07
1.25007e-06
2.53719e-05
-2.038e-07
9.73537e-07
2.46463e-05
-1.8499e-07
7.8517e-07
2.40503e-05
-1.67389e-07
6.49725e-07
2.35503e-05
-1.51334e-07
5.48337e-07
2.31239e-05
-1.36892e-07
4.70094e-07
2.27551e-05
-1.23987e-07
4.08223e-07
2.24325e-05
-1.12479e-07
3.58303e-07
2.21476e-05
-1.02205e-07
3.17338e-07
2.18938e-05
-9.30072e-08
2.83234e-07
2.16661e-05
-8.47404e-08
2.54483e-07
2.14606e-05
-7.72778e-08
2.29981e-07
2.12739e-05
-7.05111e-08
2.08897e-07
2.11036e-05
-6.43492e-08
1.90599e-07
2.09475e-05
-5.87162e-08
1.74596e-07
2.08039e-05
-5.35493e-08
1.60505e-07
2.06712e-05
-4.87964e-08
1.48019e-07
2.05483e-05
-4.44149e-08
1.36891e-07
2.0434e-05
-4.03693e-08
1.26925e-07
2.03275e-05
-3.66303e-08
1.17956e-07
2.0228e-05
-3.31757e-08
1.0985e-07
2.01348e-05
-2.99861e-08
1.02493e-07
2.00474e-05
-2.70508e-08
9.57943e-08
1.99652e-05
-2.43588e-08
8.96732e-08
1.98879e-05
-2.19208e-08
8.40601e-08
1.9815e-05
-1.972e-08
7.89083e-08
1.97463e-05
-1.78435e-08
7.4135e-08
1.96813e-05
-1.61825e-08
6.97875e-08
1.96203e-05
-1.51624e-08
6.56049e-08
1.95624e-05
-1.4101e-08
6.19985e-08
1.95084e-05
-1.49634e-08
5.84089e-08
1.94612e-05
-1.41716e-08
5.12683e-08
1.94013e-05
-2.02235e-08
6.62885e-08
-1.69797e-08
-2.91363e-08
7.70605e-05
-1.63594e-07
8.96509e-05
4.76453e-05
-2.84859e-07
2.94917e-05
3.61555e-05
-3.3775e-07
1.15785e-05
3.15776e-05
-3.50611e-07
4.66868e-06
2.90944e-05
-3.4239e-07
2.5707e-06
2.74749e-05
-3.22914e-07
1.7015e-06
2.62966e-05
-2.98448e-07
1.25368e-06
2.53879e-05
-2.72677e-07
9.77573e-07
2.46611e-05
-2.47616e-07
7.89472e-07
2.40638e-05
-2.24259e-07
6.54151e-07
2.35627e-05
-2.0299e-07
5.52776e-07
2.31352e-05
-1.8386e-07
4.74459e-07
2.27655e-05
-1.66751e-07
4.12455e-07
2.24421e-05
-1.51471e-07
3.62363e-07
2.21565e-05
-1.37805e-07
3.21202e-07
2.19022e-05
-1.25547e-07
2.86889e-07
2.1674e-05
-1.14511e-07
2.57929e-07
2.14681e-05
-1.04531e-07
2.33223e-07
2.12811e-05
-9.54682e-08
2.11943e-07
2.11105e-05
-8.72057e-08
1.93462e-07
2.09541e-05
-7.96452e-08
1.77288e-07
2.08102e-05
-7.27049e-08
1.63039e-07
2.06773e-05
-6.6317e-08
1.50408e-07
2.05542e-05
-6.04255e-08
1.39149e-07
2.04397e-05
-5.49835e-08
1.29064e-07
2.03331e-05
-4.99529e-08
1.19987e-07
2.02334e-05
-4.53027e-08
1.11781e-07
2.01401e-05
-4.10074e-08
1.04336e-07
2.00526e-05
-3.70521e-08
9.75527e-08
1.99703e-05
-3.34204e-08
9.13563e-08
1.98928e-05
-3.01263e-08
8.56731e-08
1.98198e-05
-2.71414e-08
8.04577e-08
1.97509e-05
-2.45851e-08
7.56259e-08
1.96858e-05
-2.22896e-08
7.12189e-08
1.96245e-05
-2.08572e-08
6.69893e-08
1.95663e-05
-1.92496e-08
6.33154e-08
1.9512e-05
-2.03698e-08
5.9706e-08
1.94641e-05
-1.87094e-08
5.24318e-08
1.94035e-05
-2.72151e-08
6.75899e-08
-2.10375e-08
-2.73257e-08
7.70659e-05
-2.11937e-07
8.96492e-05
4.76591e-05
-3.65208e-07
2.94871e-05
3.61757e-05
-4.27615e-07
1.15733e-05
3.16013e-05
-4.39349e-07
4.66307e-06
2.91199e-05
-4.25255e-07
2.56427e-06
2.75008e-05
-3.98264e-07
1.69443e-06
2.63223e-05
-3.66073e-07
1.2462e-06
2.54128e-05
-3.33062e-07
9.69889e-07
2.46849e-05
-3.01508e-07
7.8177e-07
2.40865e-05
-2.72444e-07
6.4658e-07
2.35843e-05
-2.46202e-07
5.45444e-07
2.31557e-05
-2.22744e-07
4.67443e-07
2.2785e-05
-2.01854e-07
4.05795e-07
2.24607e-05
-1.83251e-07
3.5608e-07
2.21743e-05
-1.66647e-07
3.15301e-07
2.19191e-05
-1.51769e-07
2.8136e-07
2.16902e-05
-1.38379e-07
2.52756e-07
2.14836e-05
-1.26272e-07
2.28382e-07
2.1296e-05
-1.15273e-07
2.07411e-07
2.11248e-05
-1.0524e-07
1.89213e-07
2.09679e-05
-9.60516e-08
1.73298e-07
2.08235e-05
-8.76104e-08
1.59284e-07
2.06902e-05
-7.98344e-08
1.46867e-07
2.05666e-05
-7.2656e-08
1.35801e-07
2.04518e-05
-6.60204e-08
1.25891e-07
2.03447e-05
-5.98807e-08
1.16973e-07
2.02447e-05
-5.42007e-08
1.08912e-07
2.0151e-05
-4.895e-08
1.01598e-07
2.00632e-05
-4.4111e-08
9.49359e-08
1.99806e-05
-3.96618e-08
8.88504e-08
1.99028e-05
-3.56207e-08
8.32713e-08
1.98294e-05
-3.19473e-08
7.81494e-08
1.97602e-05
-2.87947e-08
7.34087e-08
1.96948e-05
-2.59203e-08
6.90823e-08
1.96331e-05
-2.41383e-08
6.49446e-08
1.95745e-05
-2.19444e-08
6.13277e-08
1.95197e-05
-2.34634e-08
5.78517e-08
1.9471e-05
-2.05518e-08
5.05774e-08
1.94103e-05
-3.2516e-08
6.59951e-08
-2.16982e-08
-2.80267e-08
7.7075e-05
-2.69007e-07
8.96488e-05
4.76803e-05
-4.56066e-07
2.94855e-05
3.62044e-05
-5.26899e-07
1.15751e-05
3.16333e-05
-5.36106e-07
4.66786e-06
2.91524e-05
-5.15226e-07
2.57086e-06
2.75322e-05
-4.80367e-07
1.70232e-06
2.63516e-05
-4.40407e-07
1.25491e-06
2.54398e-05
-4.00232e-07
9.79005e-07
2.47096e-05
-3.62255e-07
7.9096e-07
2.4109e-05
-3.27491e-07
6.55608e-07
2.36049e-05
-2.96198e-07
5.54153e-07
2.31747e-05
-2.68254e-07
4.75738e-07
2.28025e-05
-2.43365e-07
4.13628e-07
2.2477e-05
-2.21179e-07
3.63433e-07
2.21896e-05
-2.01349e-07
3.22177e-07