/*--------------------------------*- C++ -*----------------------------------*\
| =========                 |                                                 |
| \\      /  F ield         | OpenFOAM: The Open Source CFD Toolbox           |
|  \\    /   O peration     | Version:  5.0                                   |
|   \\  /    A nd           | Web:      www.OpenFOAM.org                      |
|    \\/     M anipulation  |                                                 |
\*---------------------------------------------------------------------------*/
FoamFile
{
    version     2.0;
    format      ascii;
    class       volScalarField;
    location    "550/porous";
    object      T;
}
// * * * * * * * * * * * * * * * * * * * * * * * * * * * * * * * * * * * * * //

dimensions      [0 0 0 1 0 0 0];

internalField   nonuniform List<scalar> 
36000
(
400
400
400
400
399.999
399.573
399.192
398.84
398.509
398.19
397.88
397.576
397.276
396.98
396.688
396.398
396.112
395.828
395.548
395.272
394.999
394.727
394.456
394.182
393.906
393.629
393.354
393.081
392.811
392.543
392.279
392.018
391.76
391.506
391.263
391.795
392.153
392.425
392.646
392.833
400
400
400
400
399.999
399.623
399.287
398.98
398.693
398.42
398.156
397.9
397.65
397.405
397.164
396.927
396.693
396.464
396.238
396.016
395.797
395.581
395.364
395.146
394.926
394.706
394.488
394.272
394.058
393.847
393.639
393.434
393.232
393.033
392.84
393.19
393.434
393.622
393.772
393.903
400
400
400
400
399.999
399.63
399.302
399.004
398.728
398.467
398.218
397.977
397.743
397.516
397.294
397.076
396.864
396.655
396.452
396.252
396.057
395.864
395.672
395.478
395.283
395.089
394.896
394.706
394.519
394.335
394.154
393.976
393.801
393.631
393.466
393.788
394.017
394.193
394.334
394.456
400
400
400
400
399.999
399.629
399.301
399.004
398.73
398.471
398.224
397.987
397.758
397.535
397.319
397.107
396.901
396.699
396.501
396.308
396.119
395.934
395.749
395.563
395.376
395.19
395.006
394.825
394.646
394.471
394.299
394.131
393.966
393.806
393.651
393.967
394.194
394.369
394.511
394.631
400
400
400
400
399.999
399.628
399.3
399.004
398.729
398.471
398.226
397.99
397.762
397.542
397.327
397.118
396.913
396.713
396.516
396.324
396.136
395.951
395.768
395.585
395.401
395.218
395.037
394.858
394.683
394.51
394.341
394.176
394.015
393.858
393.706
394.02
394.247
394.422
394.564
394.685
400
400
400
400
399.999
399.627
399.299
399.002
398.727
398.469
398.223
397.988
397.762
397.543
397.329
397.121
396.916
396.715
396.518
396.324
396.134
395.949
395.767
395.584
395.401
395.22
395.04
394.862
394.687
394.515
394.347
394.183
394.022
393.866
393.716
394.029
394.256
394.431
394.574
394.694
400
400
400
400
399.999
399.627
399.298
399.002
398.727
398.469
398.224
397.99
397.764
397.547
397.335
397.127
396.922
396.72
396.521
396.325
396.133
395.947
395.764
395.582
395.4
395.22
395.041
394.863
394.689
394.517
394.349
394.185
394.025
393.869
393.719
394.032
394.259
394.434
394.576
394.697
400
400
400
400
399.999
399.627
399.298
399.002
398.727
398.47
398.225
397.991
397.767
397.551
397.34
397.131
396.925
396.722
396.52
396.322
396.128
395.939
395.756
395.574
395.394
395.214
395.036
394.86
394.685
394.514
394.346
394.182
394.021
393.865
393.715
394.029
394.255
394.43
394.573
394.693
400
400
400
400
399.999
399.627
399.299
399.003
398.729
398.471
398.227
397.994
397.771
397.556
397.346
397.137
396.93
396.724
396.52
396.32
396.124
395.934
395.749
395.567
395.388
395.21
395.033
394.857
394.684
394.512
394.345
394.18
394.02
393.864
393.714
394.027
394.254
394.429
394.571
394.692
400
400
400
400
399.999
399.627
399.3
399.004
398.731
398.473
398.229
397.996
397.774
397.561
397.35
397.14
396.931
396.723
396.517
396.315
396.118
395.925
395.738
395.557
395.379
395.203
395.027
394.852
394.679
394.508
394.34
394.176
394.016
393.86
393.709
394.023
394.249
394.424
394.567
394.687
400
400
400
400
399.999
399.629
399.302
399.007
398.734
398.477
398.232
398
397.779
397.565
397.354
397.143
396.932
396.722
396.514
396.311
396.113
395.919
395.73
395.548
395.371
395.197
395.022
394.849
394.676
394.506
394.338
394.174
394.014
393.858
393.707
394.02
394.247
394.422
394.564
394.685
400
400
400
400
399.999
399.63
399.304
399.009
398.736
398.479
398.235
398.002
397.781
397.567
397.355
397.143
396.93
396.718
396.51
396.308
396.109
395.914
395.723
395.541
395.364
395.191
395.018
394.846
394.674
394.504
394.336
394.172
394.012
393.856
393.704
394.018
394.244
394.419
394.562
394.682
400
400
400
400
399.999
399.631
399.307
399.012
398.739
398.482
398.237
398.005
397.783
397.569
397.356
397.143
396.929
396.717
396.509
396.307
396.109
395.913
395.722
395.538
395.361
395.189
395.018
394.847
394.676
394.506
394.339
394.175
394.014
393.857
393.705
394.019
394.245
394.42
394.563
394.683
400
400
400
400
399.999
399.633
399.308
399.014
398.741
398.483
398.239
398.005
397.783
397.567
397.354
397.14
396.926
396.714
396.507
396.305
396.107
395.912
395.721
395.537
395.359
395.188
395.018
394.848
394.678
394.508
394.341
394.177
394.017
393.859
393.706
394.02
394.246
394.421
394.563
394.684
400
400
400
400
399.999
399.633
399.309
399.015
398.742
398.484
398.239
398.005
397.781
397.565
397.352
397.137
396.923
396.712
396.505
396.304
396.106
395.911
395.721
395.536
395.358
395.188
395.02
394.851
394.681
394.512
394.345
394.181
394.02
393.861
393.708
394.021
394.248
394.423
394.565
394.686
400
400
400
400
399.999
399.635
399.312
399.018
398.744
398.485
398.239
398.004
397.779
397.562
397.348
397.134
396.92
396.709
396.503
396.301
396.104
395.909
395.719
395.534
395.357
395.187
395.021
394.853
394.684
394.515
394.348
394.184
394.022
393.863
393.706
394.021
394.247
394.423
394.565
394.686
400
400
400
400
399.999
399.635
399.312
399.018
398.744
398.485
398.238
398.002
397.776
397.558
397.344
397.131
396.917
396.706
396.499
396.298
396.1
395.906
395.715
395.532
395.355
395.186
395.021
394.854
394.685
394.517
394.349
394.185
394.023
393.862
393.705
394.02
394.247
394.422
394.564
394.685
400
400
400
400
399.999
399.636
399.313
399.019
398.744
398.485
398.237
398.001
397.774
397.555
397.341
397.128
396.915
396.704
396.497
396.296
396.098
395.904
395.713
395.53
395.355
395.187
395.022
394.856
394.688
394.519
394.352
394.187
394.024
393.863
393.704
394.019
394.246
394.421
394.564
394.685
400
400
400
400
399.999
399.637
399.314
399.019
398.744
398.484
398.236
397.999
397.771
397.551
397.337
397.125
396.914
396.704
396.497
396.295
396.098
395.903
395.713
395.532
395.358
395.19
395.025
394.859
394.69
394.521
394.353
394.188
394.025
393.861
393.701
394.017
394.244
394.42
394.563
394.684
400
400
400
400
399.999
399.637
399.314
399.019
398.744
398.484
398.236
397.998
397.769
397.548
397.334
397.124
396.915
396.706
396.5
396.299
396.101
395.907
395.719
395.539
395.365
395.197
395.032
394.865
394.696
394.526
394.358
394.192
394.028
393.864
393.703
394.019
394.247
394.422
394.565
394.686
400
400
400
400
399.999
399.637
399.315
399.02
398.745
398.484
398.236
397.997
397.767
397.546
397.331
397.121
396.914
396.709
396.505
396.304
396.107
395.915
395.728
395.548
395.375
395.206
395.039
394.871
394.701
394.531
394.362
394.195
394.03
393.865
393.702
394.019
394.247
394.423
394.566
394.687
400
400
400
400
399.999
399.638
399.315
399.021
398.745
398.485
398.236
397.997
397.767
397.545
397.329
397.12
396.915
396.712
396.511
396.312
396.116
395.925
395.74
395.56
395.386
395.216
395.047
394.877
394.706
394.536
394.366
394.199
394.033
393.867
393.704
394.021
394.25
394.426
394.569
394.69
400
400
400
400
399.999
399.638
399.316
399.021
398.746
398.485
398.236
397.997
397.766
397.543
397.327
397.117
396.914
396.713
396.514
396.317
396.123
395.934
395.749
395.569
395.393
395.221
395.05
394.879
394.707
394.536
394.367
394.199
394.033
393.866
393.703
394.021
394.249
394.426
394.569
394.69
400
400
400
400
399.999
399.639
399.317
399.022
398.747
398.487
398.238
397.998
397.767
397.543
397.327
397.118
396.915
396.716
396.52
396.325
396.133
395.944
395.76
395.579
395.402
395.227
395.054
394.882
394.709
394.538
394.369
394.201
394.034
393.868
393.704
394.022
394.251
394.428
394.571
394.693
400
400
400
400
399.999
399.639
399.317
399.023
398.748
398.487
398.238
397.998
397.766
397.542
397.326
397.116
396.913
396.716
396.522
396.329
396.138
395.95
395.765
395.583
395.404
395.227
395.052
394.878
394.706
394.534
394.364
394.196
394.029
393.863
393.7
394.018
394.247
394.424
394.567
394.689
400
400
400
400
399.999
399.64
399.319
399.025
398.75
398.49
398.241
398.001
397.769
397.544
397.327
397.117
396.914
396.718
396.525
396.333
396.143
395.955
395.769
395.586
395.404
395.226
395.048
394.873
394.699
394.527
394.357
394.188
394.02
393.853
393.689
394.008
394.237
394.414
394.558
394.679
400
400
400
400
399.999
399.64
399.319
399.024
398.75
398.489
398.239
397.998
397.765
397.54
397.321
397.11
396.906
396.708
396.514
396.321
396.13
395.94
395.751
395.564
395.38
395.197
395.017
394.838
394.661
394.487
394.314
394.142
393.972
393.801
393.635
393.955
394.184
394.361
394.504
394.626
400
400
400
400
399.999
399.64
399.319
399.023
398.747
398.484
398.232
397.988
397.751
397.521
397.297
397.081
396.871
396.668
396.468
396.268
396.07
395.872
395.675
395.48
395.287
395.095
394.906
394.718
394.533
394.349
394.167
393.987
393.807
393.627
393.451
393.777
394.008
394.186
394.329
394.451
400
400
400
400
399.999
399.633
399.303
398.998
398.71
398.435
398.169
397.91
397.658
397.41
397.168
396.932
396.702
396.478
396.256
396.034
395.812
395.59
395.369
395.149
394.93
394.713
394.497
394.284
394.072
393.862
393.653
393.446
393.239
393.032
392.828
393.182
393.428
393.618
393.768
393.9
400
400
400
400
399.999
399.583
399.207
398.857
398.525
398.204
397.891
397.584
397.282
396.984
396.691
396.403
396.121
395.844
395.568
395.292
395.015
394.737
394.46
394.184
393.91
393.636
393.365
393.095
392.828
392.562
392.297
392.033
391.77
391.507
391.251
391.787
392.148
392.421
392.643
392.831
400
400
400
400
399.999
399.773
399.519
399.249
398.971
398.689
398.405
398.121
397.837
397.554
397.272
396.991
396.711
396.433
396.156
395.883
395.611
395.342
395.072
394.801
394.529
394.255
393.983
393.711
393.441
393.173
392.908
392.646
392.386
392.129
391.88
392.128
392.365
392.577
392.764
392.928
400
400
400
400
400
399.805
399.59
399.364
399.132
398.898
398.663
398.43
398.198
397.968
397.739
397.512
397.288
397.066
396.846
396.629
396.414
396.202
395.99
395.777
395.563
395.349
395.136
394.924
394.714
394.505
394.299
394.095
393.894
393.695
393.5
393.614
393.735
393.853
393.96
394.061
400
400
400
400
400
399.81
399.601
399.383
399.161
398.939
398.718
398.499
398.283
398.07
397.86
397.653
397.449
397.247
397.05
396.855
396.663
396.474
396.286
396.098
395.909
395.721
395.534
395.348
395.164
394.983
394.803
394.627
394.453
394.282
394.115
394.216
394.325
394.431
394.528
394.62
400
400
400
400
400
399.809
399.6
399.382
399.162
398.942
398.723
398.508
398.296
398.087
397.882
397.68
397.482
397.287
397.095
396.907
396.722
396.54
396.359
396.179
395.998
395.818
395.639
395.462
395.287
395.115
394.944
394.777
394.613
394.451
394.294
394.394
394.501
394.606
394.704
394.795
400
400
400
400
400
399.809
399.6
399.382
399.162
398.942
398.724
398.51
398.299
398.092
397.889
397.689
397.492
397.299
397.109
396.922
396.738
396.557
396.379
396.2
396.022
395.845
395.669
395.495
395.322
395.152
394.985
394.821
394.66
394.502
394.348
394.447
394.555
394.659
394.757
394.848
400
400
400
400
400
399.808
399.598
399.38
399.159
398.939
398.721
398.507
398.297
398.091
397.888
397.689
397.493
397.3
397.11
396.922
396.737
396.556
396.377
396.199
396.022
395.845
395.67
395.497
395.325
395.156
394.99
394.826
394.666
394.509
394.356
394.456
394.563
394.668
394.766
394.857
400
400
400
400
400
399.808
399.598
399.38
399.159
398.939
398.722
398.508
398.298
398.093
397.892
397.694
397.498
397.304
397.113
396.924
396.738
396.555
396.376
396.198
396.021
395.845
395.671
395.498
395.326
395.158
394.991
394.828
394.668
394.511
394.359
394.459
394.566
394.671
394.769
394.86
400
400
400
400
400
399.808
399.598
399.379
399.159
398.939
398.721
398.507
398.299
398.095
397.894
397.696
397.5
397.305
397.112
396.921
396.734
396.549
396.369
396.191
396.014
395.839
395.665
395.493
395.322
395.153
394.987
394.824
394.664
394.507
394.355
394.455
394.562
394.667
394.765
394.856
400
400
400
400
400
399.808
399.598
399.38
399.16
398.94
398.723
398.509
398.302
398.099
397.899
397.701
397.504
397.308
397.113
396.921
396.732
396.546
396.364
396.186
396.01
395.835
395.662
395.49
395.32
395.151
394.985
394.822
394.662
394.506
394.353
394.453
394.56
394.665
394.763
394.855
400
400
400
400
400
399.808
399.598
399.381
399.16
398.941
398.724
398.511
398.304
398.101
397.901
397.703
397.505
397.307
397.111
396.918
396.727
396.54
396.357
396.177
396.002
395.828
395.655
395.484
395.314
395.146
394.98
394.817
394.657
394.501
394.348
394.448
394.556
394.66
394.759
394.85
400
400
400
400
400
399.809
399.6
399.383
399.163
398.943
398.726
398.514
398.307
398.105
397.905
397.705
397.506
397.308
397.111
396.916
396.725
396.536
396.351
396.171
395.995
395.822
395.65
395.48
395.311
395.143
394.978
394.815
394.655
394.498
394.346
394.446
394.553
394.658
394.756
394.848
400
400
400
400
400
399.809
399.601
399.384
399.164
398.945
398.728
398.515
398.308
398.106
397.906
397.706
397.506
397.306
397.108
396.913
396.721
396.532
396.346
396.165
395.989
395.816
395.645
395.476
395.307
395.14
394.975
394.812
394.653
394.496
394.343
394.443
394.55
394.655
394.754
394.845
400
400
400
400
400
399.81
399.602
399.386
399.166
398.947
398.73
398.518
398.31
398.108
397.907
397.706
397.505
397.305
397.107
396.912
396.721
396.531
396.345
396.163
395.987
395.815
395.645
395.476
395.308
395.141
394.976
394.814
394.654
394.497
394.344
394.444
394.551
394.656
394.755
394.846
400
400
400
400
400
399.811
399.603
399.387
399.167
398.948
398.731
398.518
398.31
398.107
397.906
397.704
397.503
397.303
397.105
396.911
396.719
396.53
396.344
396.162
395.985
395.814
395.644
395.476
395.309
395.143
394.978
394.816
394.656
394.499
394.345
394.445
394.552
394.657
394.755
394.847
400
400
400
400
400
399.811
399.604
399.388
399.168
398.949
398.731
398.518
398.31
398.106
397.904
397.702
397.501
397.301
397.104
396.909
396.718
396.529
396.343
396.161
395.984
395.813
395.645
395.478
395.311
395.145
394.981
394.818
394.659
394.501
394.347
394.447
394.554
394.659
394.757
394.848
400
400
400
400
400
399.812
399.605
399.389
399.17
398.95
398.732
398.518
398.309
398.104
397.902
397.7
397.499
397.299
397.101
396.907
396.716
396.527
396.341
396.159
395.983
395.812
395.645
395.479
395.312
395.147
394.983
394.821
394.661
394.503
394.346
394.446
394.554
394.659
394.757
394.848
400
400
400
400
400
399.812
399.606
399.39
399.17
398.95
398.731
398.517
398.307
398.102
397.899
397.697
397.496
397.296
397.098
396.904
396.713
396.524
396.338
396.157
395.981
395.811
395.644
395.478
395.313
395.148
394.984
394.822
394.661
394.503
394.346
394.446
394.553
394.658
394.756
394.848
400
400
400
400
400
399.812
399.606
399.39
399.17
398.95
398.731
398.516
398.306
398.099
397.896
397.695
397.494
397.294
397.097
396.903
396.711
396.522
396.336
396.156
395.98
395.811
395.645
395.48
395.314
395.149
394.985
394.823
394.663
394.503
394.346
394.446
394.553
394.658
394.756
394.848
400
400
400
400
400
399.813
399.606
399.39
399.17
398.95
398.731
398.515
398.304
398.097
397.894
397.693
397.493
397.294
397.096
396.902
396.71
396.521
396.336
396.156
395.981
395.812
395.647
395.482
395.317
395.151
394.987
394.825
394.664
394.503
394.345
394.444
394.552
394.657
394.755
394.846
400
400
400
400
400
399.813
399.607
399.391
399.171
398.95
398.731
398.515
398.303
398.096
397.892
397.692
397.493
397.295
397.098
396.905
396.714
396.525
396.341
396.162
395.988
395.819
395.653
395.488
395.322
395.157
394.992
394.829
394.668
394.507
394.347
394.447
394.555
394.659
394.758
394.849
400
400
400
400
400
399.813
399.607
399.391
399.171
398.95
398.731
398.515
398.302
398.094
397.89
397.69
397.492
397.296
397.101
396.908
396.718
396.531
396.347
396.169
395.996
395.826
395.66
395.494
395.328
395.162
394.997
394.833
394.671
394.509
394.348
394.448
394.555
394.66
394.759
394.85
400
400
400
400
400
399.813
399.608
399.392
399.172
398.951
398.732
398.515
398.303
398.094
397.89
397.69
397.493
397.298
397.105
396.913
396.725
396.539
396.357
396.179
396.006
395.836
395.668
395.501
395.334
395.168
395.002
394.838
394.675
394.513
394.352
394.451
394.559
394.664
394.762
394.854
400
400
400
400
400
399.814
399.608
399.392
399.172
398.952
398.732
398.515
398.302
398.093
397.889
397.688
397.492
397.298
397.107
396.917
396.729
396.545
396.364
396.186
396.012
395.841
395.673
395.505
395.337
395.17
395.004
394.839
394.676
394.513
394.352
394.452
394.559
394.664
394.763
394.854
400
400
400
400
400
399.814
399.609
399.393
399.174
398.953
398.734
398.518
398.304
398.095
397.89
397.69
397.493
397.301
397.111
396.923
396.737
396.553
396.373
396.196
396.021
395.849
395.679
395.509
395.341
395.173
395.007
394.843
394.679
394.516
394.354
394.454
394.562
394.667
394.765
394.857
400
400
400
400
400
399.814
399.609
399.394
399.174
398.954
398.735
398.518
398.304
398.095
397.889
397.689
397.493
397.301
397.112
396.925
396.74
396.557
396.377
396.199
396.024
395.85
395.679
395.508
395.339
395.171
395.004
394.839
394.675
394.512
394.35
394.45
394.558
394.663
394.762
394.853
400
400
400
400
400
399.815
399.61
399.396
399.177
398.957
398.738
398.521
398.308
398.098
397.892
397.691
397.495
397.304
397.115
396.929
396.745
396.562
396.381
396.203
396.026
395.85
395.677
395.505
395.335
395.166
394.999
394.833
394.668
394.504
394.341
394.441
394.548
394.654
394.752
394.843
400
400
400
400
400
399.815
399.61
399.395
399.176
398.956
398.736
398.519
398.305
398.094
397.887
397.684
397.487
397.294
397.105
396.918
396.732
396.547
396.364
396.182
396.002
395.824
395.647
395.472
395.299
395.127
394.957
394.788
394.62
394.453
394.288
394.388
394.495
394.601
394.699
394.79
400
400
400
400
400
399.815
399.61
399.395
399.175
398.952
398.73
398.51
398.292
398.077
397.866
397.658
397.455
397.257
397.061
396.868
396.675
396.483
396.292
396.103
395.914
395.727
395.542
395.358
395.176
394.995
394.816
394.637
394.46
394.284
394.109
394.21
394.319
394.426
394.524
394.616
400
400
400
400
400
399.81
399.599
399.375
399.144
398.91
398.675
398.44
398.206
397.974
397.745
397.518
397.295
397.076
396.859
396.643
396.427
396.212
395.997
395.782
395.568
395.356
395.144
394.934
394.725
394.518
394.312
394.107
393.902
393.698
393.496
393.61
393.731
393.85
393.957
394.058
400
400
400
400
399.999
399.779
399.528
399.26
398.983
398.701
398.416
398.13
397.844
397.559
397.276
396.996
396.718
396.444
396.172
395.899
395.626
395.353
395.079
394.806
394.534
394.262
393.992
393.723
393.455
393.189
392.924
392.661
392.397
392.134
391.875
392.124
392.362
392.574
392.762
392.926
400
400
400
400
400
399.858
399.696
399.516
399.321
399.112
398.893
398.666
398.431
398.191
397.946
397.697
397.446
397.193
396.939
396.685
396.43
396.175
395.919
395.661
395.402
395.141
394.879
394.617
394.356
394.095
393.836
393.578
393.322
393.068
392.819
392.891
392.984
393.088
393.194
393.292
400
400
400
400
400
399.878
399.742
399.594
399.435
399.268
399.094
398.914
398.73
398.542
398.352
398.159
397.965
397.77
397.575
397.379
397.185
396.99
396.795
396.599
396.401
396.203
396.005
395.807
395.609
395.412
395.217
395.022
394.829
394.638
394.448
394.448
394.461
394.486
394.517
394.552
400
400
400
400
400
399.88
399.749
399.606
399.456
399.298
399.135
398.968
398.798
398.626
398.453
398.278
398.103
397.929
397.754
397.581
397.408
397.237
397.065
396.893
396.721
396.548
396.376
396.204
396.033
395.863
395.694
395.527
395.361
395.198
395.037
395.037
395.049
395.07
395.096
395.126
400
400
400
400
400
399.88
399.748
399.606
399.457
399.3
399.14
398.975
398.808
398.64
398.471
398.301
398.132
397.963
397.794
397.627
397.461
397.296
397.132
396.967
396.802
396.638
396.473
396.31
396.147
395.986
395.826
395.669
395.512
395.358
395.207
395.21
395.224
395.246
395.273
395.304
400
400
400
400
400
399.88
399.748
399.606
399.457
399.301
399.141
398.977
398.811
398.644
398.476
398.308
398.14
397.973
397.806
397.64
397.476
397.313
397.15
396.988
396.825
396.663
396.501
396.341
396.181
396.022
395.866
395.711
395.558
395.407
395.258
395.263
395.277
395.3
395.327
395.36
400
400
400
400
400
399.88
399.747
399.605
399.455
399.299
399.138
398.974
398.809
398.642
398.475
398.307
398.14
397.972
397.806
397.64
397.475
397.311
397.149
396.986
396.824
396.663
396.502
396.342
396.183
396.025
395.869
395.715
395.563
395.413
395.265
395.27
395.285
395.308
395.336
395.369
400
400
400
400
400
399.879
399.747
399.605
399.455
399.299
399.138
398.975
398.81
398.644
398.477
398.31
398.143
397.975
397.808
397.641
397.476
397.311
397.148
396.986
396.824
396.663
396.502
396.343
396.184
396.026
395.871
395.717
395.565
395.415
395.268
395.273
395.288
395.311
395.339
395.372
400
400
400
400
400
399.879
399.747
399.605
399.454
399.298
399.137
398.974
398.809
398.644
398.478
398.311
398.143
397.975
397.807
397.639
397.472
397.307
397.143
396.981
396.819
396.657
396.497
396.337
396.179
396.021
395.866
395.712
395.56
395.41
395.263
395.268
395.283
395.306
395.335
395.367
400
400
400
400
400
399.88
399.747
399.605
399.455
399.299
399.138
398.975
398.811
398.646
398.481
398.314
398.146
397.977
397.808
397.64
397.472
397.305
397.141
396.978
396.816
396.655
396.495
396.335
396.177
396.019
395.864
395.71
395.558
395.408
395.261
395.266
395.282
395.305
395.333
395.366
400
400
400
400
400
399.88
399.747
399.605
399.455
399.299
399.139
398.976
398.812
398.648
398.482
398.315
398.147
397.977
397.807
397.637
397.468
397.301
397.135
396.971
396.809
396.648
396.488
396.329
396.171
396.014
395.858
395.705
395.553
395.403
395.256
395.261
395.277
395.3
395.328
395.361
400
400
400
400
400
399.88
399.748
399.607
399.457
399.301
399.141
398.978
398.815
398.65
398.485
398.317
398.148
397.978
397.807
397.637
397.467
397.298
397.132
396.967
396.805
396.644
396.485
396.326
396.168
396.011
395.856
395.702
395.55
395.401
395.254
395.259
395.274
395.297
395.326
395.359
400
400
400
400
400
399.88
399.749
399.607
399.458
399.302
399.142
398.979
398.816
398.651
398.485
398.317
398.148
397.977
397.805
397.635
397.465
397.295
397.128
396.963
396.8
396.64
396.481
396.322
396.164
396.008
395.853
395.699
395.547
395.398
395.25
395.256
395.271
395.294
395.323
395.356
400
400
400
400
400
399.881
399.75
399.609
399.459
399.304
399.143
398.981
398.817
398.653
398.486
398.318
398.148
397.976
397.805
397.634
397.465
397.295
397.127
396.962
396.799
396.639
396.48
396.322
396.165
396.008
395.853
395.7
395.548
395.399
395.251
395.257
395.272
395.295
395.323
395.356
400
400
400
400
400
399.881
399.751
399.609
399.46
399.304
399.144
398.981
398.817
398.652
398.486
398.317
398.147
397.975
397.804
397.633
397.463
397.294
397.126
396.961
396.798
396.638
396.479
396.322
396.165
396.009
395.854
395.701
395.549
395.4
395.252
395.257
395.272
395.296
395.324
395.357
400
400
400
400
400
399.882
399.751
399.61
399.461
399.305
399.145
398.981
398.817
398.652
398.485
398.316
398.145
397.974
397.802
397.632
397.462
397.293
397.125
396.96
396.797
396.637
396.479
396.322
396.166
396.01
395.856
395.703
395.551
395.401
395.253
395.259
395.274
395.297
395.325
395.358
400
400
400
400
400
399.882
399.752
399.611
399.462
399.306
399.145
398.982
398.817
398.651
398.484
398.314
398.144
397.972
397.801
397.63
397.46
397.292
397.124
396.958
396.795
396.636
396.479
396.322
396.167
396.011
395.857
395.704
395.553
395.402
395.253
395.259
395.274
395.297
395.326
395.359
400
400
400
400
400
399.882
399.752
399.611
399.462
399.306
399.145
398.981
398.815
398.649
398.482
398.312
398.142
397.97
397.799
397.628
397.458
397.289
397.121
396.956
396.793
396.634
396.478
396.322
396.166
396.011
395.857
395.704
395.553
395.402
395.253
395.258
395.274
395.297
395.325
395.358
400
400
400
400
400
399.882
399.752
399.612
399.462
399.306
399.145
398.981
398.815
398.648
398.48
398.311
398.141
397.969
397.797
397.627
397.457
397.288
397.12
396.955
396.793
396.634
396.478
396.322
396.167
396.012
395.858
395.705
395.554
395.403
395.253
395.258
395.274
395.297
395.325
395.358
400
400
400
400
400
399.883
399.753
399.612
399.462
399.306
399.145
398.98
398.814
398.646
398.478
398.31
398.139
397.968
397.797
397.626
397.456
397.287
397.12
396.955
396.793
396.635
396.479
396.324
396.168
396.014
395.86
395.707
395.555
395.403
395.253
395.258
395.273
395.296
395.324
395.357
400
400
400
400
400
399.883
399.753
399.612
399.462
399.306
399.145
398.98
398.814
398.646
398.478
398.309
398.14
397.969
397.798
397.628
397.459
397.29
397.123
396.959
396.798
396.64
396.484
396.329
396.174
396.019
395.865
395.711
395.559
395.407
395.256
395.261
395.277
395.299
395.328
395.36
400
400
400
400
400
399.883
399.753
399.612
399.463
399.306
399.145
398.98
398.813
398.645
398.477
398.308
398.139
397.969
397.8
397.63
397.461
397.293
397.128
396.964
396.804
396.646
396.49
396.334
396.178
396.023
395.869
395.715
395.562
395.41
395.258
395.263
395.278
395.301
395.329
395.362
400
400
400
400
400
399.883
399.753
399.613
399.463
399.307
399.146
398.981
398.814
398.646
398.477
398.308
398.14
397.972
397.803
397.634
397.466
397.3
397.135
396.972
396.812
396.654
396.497
396.341
396.185
396.03
395.875
395.721
395.568
395.415
395.263
395.268
395.283
395.306
395.333
395.366
400
400
400
400
400
399.883
399.754
399.613
399.464
399.307
399.146
398.981
398.814
398.645
398.476
398.308
398.14
397.972
397.804
397.636
397.469
397.304
397.14
396.977
396.817
396.658
396.501
396.344
396.188
396.032
395.877
395.723
395.569
395.416
395.264
395.269
395.284
395.306
395.334
395.367
400
400
400
400
400
399.883
399.754
399.614
399.465
399.309
399.148
398.983
398.816
398.647
398.478
398.31
398.142
397.975
397.808
397.642
397.476
397.311
397.147
396.985
396.825
396.666
396.508
396.35
396.193
396.037
395.882
395.727
395.574
395.42
395.268
395.273
395.287
395.31
395.338
395.371
400
400
400
400
400
399.883
399.754
399.614
399.465
399.309
399.148
398.983
398.816
398.647
398.478
398.309
398.141
397.975
397.809
397.643
397.478
397.313
397.15
396.988
396.827
396.667
396.508
396.35
396.192
396.036
395.88
395.725
395.571
395.417
395.265
395.269
395.284
395.306
395.334
395.367
400
400
400
400
400
399.884
399.755
399.615
399.467
399.311
399.151
398.986
398.819
398.65
398.481
398.312
398.144
397.978
397.812
397.647
397.482
397.317
397.154
396.991
396.829
396.668
396.508
396.349
396.19
396.033
395.876
395.72
395.565
395.411
395.257
395.261
395.276
395.298
395.325
395.357
400
400
400
400
400
399.884
399.755
399.615
399.466
399.31
399.149
398.984
398.816
398.647
398.476
398.306
398.137
397.969
397.802
397.635
397.469
397.303
397.137
396.972
396.807
396.643
396.48
396.318
396.157
395.996
395.836
395.678
395.52
395.362
395.206
395.209
395.222
395.244
395.271
395.302
400
400
400
400
400
399.884
399.755
399.614
399.465
399.308
399.145
398.977
398.806
398.633
398.458
398.284
398.109
397.936
397.764
397.591
397.418
397.245
397.072
396.899
396.726
396.554
396.383
396.212
396.042
395.872
395.704
395.536
395.369
395.202
395.036
395.036
395.048
395.069
395.094
395.125
400
400
400
400
400
399.881
399.747
399.601
399.443
399.277
399.102
398.922
398.737
398.548
398.357
398.164
397.971
397.778
397.585
397.39
397.195
396.999
396.802
396.605
396.407
396.21
396.012
395.815
395.619
395.423
395.227
395.032
394.838
394.643
394.449
394.448
394.461
394.486
394.517
394.551
400
400
400
400
400
399.861
399.702
399.524
399.329
399.121
398.902
398.673
398.437
398.196
397.951
397.702
397.453
397.203
396.951
396.698
396.442
396.185
395.927
395.667
395.407
395.147
394.887
394.627
394.367
394.108
393.849
393.591
393.333
393.075
392.819
392.891
392.984
393.087
393.193
393.291
400
400
400
400
400
399.891
399.772
399.641
399.5
399.349
399.187
399.016
398.836
398.648
398.453
398.251
398.044
397.832
397.616
397.396
397.174
396.948
396.72
396.488
396.253
396.015
395.775
395.534
395.292
395.048
394.805
394.562
394.319
394.077
393.837
393.832
393.841
393.862
393.892
393.917
400
400
400
400
400
399.906
399.804
399.697
399.582
399.461
399.334
399.202
399.064
398.921
398.774
398.623
398.469
398.312
398.152
397.991
397.827
397.662
397.496
397.327
397.156
396.983
396.808
396.633
396.458
396.282
396.106
395.93
395.754
395.579
395.404
395.367
395.335
395.311
395.291
395.275
400
400
400
400
400
399.907
399.809
399.705
399.596
399.483
399.364
399.241
399.115
398.985
398.852
398.716
398.579
398.439
398.299
398.157
398.014
397.871
397.726
397.58
397.433
397.284
397.135
396.985
396.835
396.685
396.536
396.387
396.238
396.091
395.944
395.915
395.89
395.87
395.854
395.842
400
400
400
400
400
399.907
399.809
399.706
399.597
399.484
399.367
399.246
399.122
398.996
398.866
398.735
398.602
398.467
398.332
398.195
398.058
397.921
397.783
397.644
397.504
397.363
397.221
397.079
396.938
396.796
396.655
396.515
396.376
396.237
396.1
396.075
396.055
396.038
396.025
396.017
400
400
400
400
400
399.907
399.809
399.705
399.597
399.485
399.368
399.248
399.125
398.999
398.871
398.74
398.609
398.475
398.341
398.207
398.071
397.936
397.799
397.662
397.524
397.385
397.246
397.107
396.968
396.829
396.691
396.554
396.418
396.282
396.149
396.125
396.106
396.091
396.079
396.073
400
400
400
400
400
399.907
399.808
399.705
399.596
399.483
399.366
399.246
399.123
398.997
398.869
398.739
398.608
398.475
398.341
398.206
398.07
397.934
397.798
397.661
397.524
397.385
397.247
397.108
396.97
396.832
396.695
396.558
396.422
396.288
396.155
396.132
396.114
396.099
396.088
396.082
400
400
400
400
400
399.907
399.808
399.705
399.596
399.483
399.366
399.246
399.123
398.998
398.871
398.741
398.61
398.477
398.342
398.207
398.071
397.934
397.798
397.661
397.524
397.386
397.247
397.109
396.971
396.833
396.696
396.56
396.424
396.29
396.157
396.135
396.116
396.102
396.091
396.086
400
400
400
400
400
399.907
399.808
399.704
399.596
399.483
399.366
399.246
399.123
398.998
398.871
398.742
398.61
398.476
398.341
398.205
398.068
397.931
397.794
397.657
397.519
397.381
397.243
397.105
396.966
396.828
396.691