/*--------------------------------*- C++ -*----------------------------------*\
| =========                 |                                                 |
| \\      /  F ield         | OpenFOAM: The Open Source CFD Toolbox           |
|  \\    /   O peration     | Version:  5.0                                   |
|   \\  /    A nd           | Web:      www.OpenFOAM.org                      |
|    \\/     M anipulation  |                                                 |
\*---------------------------------------------------------------------------*/
FoamFile
{
    version     2.0;
    format      ascii;
    class       volVectorField;
    location    "550/porous";
    object      U;
}
// * * * * * * * * * * * * * * * * * * * * * * * * * * * * * * * * * * * * * //

dimensions      [0 1 -1 0 0 0 0];

internalField   nonuniform List<vector> 
36000
(
(0.00555056 7.02127e-05 0.000289042)
(0.00340903 4.42548e-05 6.71224e-05)
(0.00220329 3.69639e-05 1.37094e-05)
(0.00180686 3.07685e-05 1.60336e-06)
(0.00158038 2.55944e-05 1.93768e-07)
(0.00143087 2.16609e-05 -4.36096e-08)
(0.00131992 1.86587e-05 -9.9207e-08)
(0.00123221 1.63201e-05 -1.35693e-07)
(0.00116052 1.44475e-05 -1.60064e-07)
(0.00110042 1.29121e-05 -1.72948e-07)
(0.00104907 1.16278e-05 -1.77881e-07)
(0.00100455 1.05356e-05 -1.77422e-07)
(0.000965469 9.59367e-06 -1.73398e-07)
(0.000930829 8.77161e-06 -1.67058e-07)
(0.000899864 8.04684e-06 -1.59235e-07)
(0.000871988 7.40224e-06 -1.50509e-07)
(0.000846739 6.82465e-06 -1.41276e-07)
(0.000823745 6.30377e-06 -1.31816e-07)
(0.000802709 5.83144e-06 -1.2233e-07)
(0.000783384 5.40112e-06 -1.12951e-07)
(0.000765565 5.00747e-06 -1.0378e-07)
(0.000749081 4.64611e-06 -9.489e-08)
(0.000733788 4.31339e-06 -8.63241e-08)
(0.000719561 4.00627e-06 -7.81103e-08)
(0.000706293 3.72211e-06 -7.02713e-08)
(0.000693893 3.4587e-06 -6.28107e-08)
(0.00068228 3.21413e-06 -5.5737e-08)
(0.000671383 2.98666e-06 -4.90363e-08)
(0.000661141 2.77504e-06 -4.2734e-08)
(0.000651495 2.57749e-06 -3.67446e-08)
(0.000642404 2.39421e-06 -3.12593e-08)
(0.000633804 2.22077e-06 -2.57559e-08)
(0.000625709 2.06536e-06 -2.15641e-08)
(0.000617941 1.90318e-06 -1.51724e-08)
(0.000610837 1.7957e-06 -1.56406e-08)
(0.000603417 1.58008e-06 7.50223e-10)
(0.000598099 1.65822e-06 -2.7023e-08)
(0.000588667 1.0485e-06 6.14487e-08)
(0.000590143 1.86583e-06 -1.49857e-07)
(0.000568368 1.43904e-07 5.94494e-07)
(0.00562429 8.38019e-05 0.000295874)
(0.00352515 5.57859e-05 6.94443e-05)
(0.00238476 4.95062e-05 1.59396e-05)
(0.00202138 4.17585e-05 3.37245e-06)
(0.00182312 3.58425e-05 1.57099e-06)
(0.00169624 3.13323e-05 1.11423e-06)
(0.0016036 2.77807e-05 9.06685e-07)
(0.00153095 2.49103e-05 7.56704e-07)
(0.00147176 2.25175e-05 6.42936e-07)
(0.00142217 2.04752e-05 5.57475e-07)
(0.00137972 1.86995e-05 4.92088e-07)
(0.00134278 1.71334e-05 4.41027e-07)
(0.00131018 1.57368e-05 4.00298e-07)
(0.00128111 1.44804e-05 3.67145e-07)
(0.00125493 1.33422e-05 3.39655e-07)
(0.00123117 1.23054e-05 3.16474e-07)
(0.00120947 1.13567e-05 2.96623e-07)
(0.00118953 1.04854e-05 2.79391e-07)
(0.00117111 9.68301e-06 2.64242e-07)
(0.00115403 8.94231e-06 2.50775e-07)
(0.00113812 8.25732e-06 2.38672e-07)
(0.00112326 7.62292e-06 2.27702e-07)
(0.00110934 7.03471e-06 2.17681e-07)
(0.00109625 6.48884e-06 2.08451e-07)
(0.00108393 5.98196e-06 1.99894e-07)
(0.00107229 5.51104e-06 1.91918e-07)
(0.00106129 5.07349e-06 1.84445e-07)
(0.00105086 4.66681e-06 1.77413e-07)
(0.00104096 4.2892e-06 1.70757e-07)
(0.00103154 3.93798e-06 1.64461e-07)
(0.00102258 3.61356e-06 1.58415e-07)
(0.00101403 3.30887e-06 1.52771e-07)
(0.00100589 3.03718e-06 1.47037e-07)
(0.000998042 2.75777e-06 1.42398e-07)
(0.0009907 2.57261e-06 1.35732e-07)
(0.000983226 2.20132e-06 1.35355e-07)
(0.000977202 2.36804e-06 1.18593e-07)
(0.000968384 1.1516e-06 1.53737e-07)
(0.000967691 3.29319e-06 1.33678e-08)
(0.000948243 -2.29533e-06 6.54392e-07)
(0.00561665 4.31986e-05 0.000294818)
(0.00351435 3.87549e-05 6.83114e-05)
(0.00239037 3.89918e-05 1.53282e-05)
(0.00203483 3.50479e-05 2.96223e-06)
(0.00184471 3.11662e-05 1.26848e-06)
(0.00172533 2.78118e-05 8.86461e-07)
(0.00163969 2.49083e-05 7.21892e-07)
(0.00157364 2.24204e-05 5.97652e-07)
(0.00152072 2.02732e-05 4.99537e-07)
(0.00147707 1.84035e-05 4.23725e-07)
(0.00144027 1.67601e-05 3.64413e-07)
(0.00140869 1.53028e-05 3.17309e-07)
(0.00138119 1.40001e-05 2.79305e-07)
(0.00135694 1.28275e-05 2.48198e-07)
(0.00133534 1.17655e-05 2.22416e-07)
(0.00131593 1.07986e-05 2.0082e-07)
(0.00129834 9.91439e-06 1.8256e-07)
(0.00128229 9.10285e-06 1.66997e-07)
(0.00126757 8.3557e-06 1.53636e-07)
(0.00125399 7.66613e-06 1.42091e-07)
(0.00124139 7.02846e-06 1.32057e-07)
(0.00122967 6.43788e-06 1.23289e-07)
(0.00121871 5.89029e-06 1.15588e-07)
(0.00120844 5.38214e-06 1.08792e-07)
(0.00119878 4.91038e-06 1.02768e-07)
(0.00118967 4.47228e-06 9.73991e-08)
(0.00118106 4.06555e-06 9.2593e-08)
(0.0011729 3.68799e-06 8.82793e-08)
(0.00116516 3.33809e-06 8.43787e-08)
(0.00115778 3.01353e-06 8.08614e-08)
(0.00115076 2.71484e-06 7.76132e-08)
(0.00114405 2.43581e-06 7.4752e-08)
(0.00113766 2.18854e-06 7.18494e-08)
(0.00113148 1.93604e-06 6.98603e-08)
(0.00112568 1.77158e-06 6.6326e-08)
(0.0011198 1.43143e-06 6.72847e-08)
(0.00111492 1.61428e-06 5.80733e-08)
(0.00110822 3.52612e-07 7.5735e-08)
(0.00110677 2.88878e-06 1.50298e-08)
(0.00109301 -4.63698e-06 3.56792e-07)
(0.00560903 3.7218e-05 0.000295464)
(0.00349577 4.16684e-05 6.89141e-05)
(0.00237452 4.09011e-05 1.5737e-05)
(0.00202133 3.65959e-05 3.25869e-06)
(0.00183431 3.22541e-05 1.48091e-06)
(0.00171797 2.84864e-05 1.04272e-06)
(0.00163519 2.52718e-05 8.38264e-07)
(0.00157184 2.25653e-05 6.87112e-07)
(0.00152146 2.02753e-05 5.71009e-07)
(0.00148021 1.83189e-05 4.8309e-07)
(0.0014457 1.66287e-05 4.15585e-07)
(0.0014163 1.51519e-05 3.62872e-07)
(0.0013909 1.38477e-05 3.20969e-07)
(0.00136869 1.26849e-05 2.87081e-07)
(0.00134905 1.16393e-05 2.59241e-07)
(0.00133154 1.0692e-05 2.36041e-07)
(0.00131579 9.82857e-06 2.16458e-07)
(0.00130154 9.03729e-06 1.99729e-07)
(0.00128855 8.30897e-06 1.8529e-07)
(0.00127665 7.63622e-06 1.727e-07)
(0.0012657 7.01305e-06 1.61621e-07)
(0.00125557 6.43452e-06 1.51797e-07)
(0.00124617 5.89654e-06 1.43014e-07)
(0.00123741 5.39567e-06 1.35111e-07)
(0.00122921 4.92901e-06 1.27951e-07)
(0.00122153 4.49405e-06 1.21423e-07)
(0.00121431 4.0887e-06 1.15443e-07)
(0.00120749 3.71106e-06 1.0994e-07)
(0.00120106 3.35983e-06 1.0484e-07)
(0.00119496 3.033e-06 1.00113e-07)
(0.00118918 2.73144e-06 9.56763e-08)
(0.00118368 2.44918e-06 9.15897e-08)
(0.00117845 2.19889e-06 8.7587e-08)
(0.00117343 1.94401e-06 8.42109e-08)
(0.00116871 1.77804e-06 8.00651e-08)
(0.00116399 1.44425e-06 7.83011e-08)
(0.00115991 1.61692e-06 7.20172e-08)
(0.00115485 4.56178e-07 7.39746e-08)
(0.00115268 2.78375e-06 6.00375e-08)
(0.0011432 -3.85821e-06 1.81632e-07)
(0.00560508 2.48873e-05 0.00029527)
(0.00348634 3.19097e-05 6.8561e-05)
(0.00236678 3.29948e-05 1.53586e-05)
(0.00201478 3.08458e-05 2.95255e-06)
(0.00182897 2.80114e-05 1.23553e-06)
(0.00171363 2.52317e-05 8.45312e-07)
(0.00163167 2.26644e-05 6.7598e-07)
(0.00156903 2.03784e-05 5.50668e-07)
(0.00151928 1.83655e-05 4.53598e-07)
(0.00147863 1.65966e-05 3.79677e-07)
(0.00144469 1.50382e-05 3.22506e-07)
(0.00141587 1.36585e-05 2.77487e-07)
(0.00139103 1.243e-05 2.41375e-07)
(0.00136938 1.13296e-05 2.11915e-07)
(0.00135031 1.03382e-05 1.87532e-07)
(0.00133337 9.44019e-06 1.6709e-07)
(0.0013182 8.62274e-06 1.49782e-07)
(0.00130453 7.87544e-06 1.34985e-07)
(0.00129212 7.18973e-06 1.2224e-07)
(0.00128081 6.55859e-06 1.11184e-07)
(0.00127044 5.9762e-06 1.01537e-07)
(0.0012609 5.43768e-06 9.30724e-08)
(0.00125207 4.93897e-06 8.5615e-08)
(0.00124389 4.47661e-06 7.90071e-08)
(0.00123627 4.04766e-06 7.31337e-08)
(0.00122916 3.64959e-06 6.78967e-08)
(0.0012225 3.2803e-06 6.32064e-08)
(0.00121625 2.93788e-06 5.89989e-08)
(0.00121037 2.62106e-06 5.52057e-08)
(0.00120482 2.32792e-06 5.17856e-08)
(0.00119958 2.05928e-06 4.86708e-08)
(0.00119462 1.80979e-06 4.58843e-08)
(0.00118992 1.59114e-06 4.32563e-08)
(0.00118544 1.37105e-06 4.10695e-08)
(0.0011812 1.23334e-06 3.86327e-08)
(0.00117708 9.54898e-07 3.71515e-08)
(0.00117328 1.122e-06 3.54217e-08)
(0.00116929 1.86578e-07 2.85725e-08)
(0.00116626 2.15549e-06 5.3304e-08)
(0.00116032 -2.90791e-06 2.9547e-08)
(0.005603 2.06431e-05 0.000295425)
(0.00348001 3.00625e-05 6.88203e-05)
(0.0023591 3.20574e-05 1.56022e-05)
(0.00200672 3.05767e-05 3.1746e-06)
(0.00182116 2.80205e-05 1.42759e-06)
(0.0017063 2.52901e-05 1.00837e-06)
(0.00162491 2.26849e-05 8.13356e-07)
(0.00156283 2.03337e-05 6.6682e-07)
(0.00151364 1.82595e-05 5.5277e-07)
(0.0014735 1.64447e-05 4.65394e-07)
(0.00144003 1.48584e-05 3.97614e-07)
(0.00141164 1.34671e-05 3.44215e-07)
(0.00138721 1.22403e-05 3.0145e-07)
(0.00136593 1.11518e-05 2.66662e-07)
(0.0013472 1.01793e-05 2.37967e-07)
(0.00133059 9.30498e-06 2.13989e-07)
(0.00131573 8.51402e-06 1.93727e-07)
(0.00130234 7.79452e-06 1.7643e-07)
(0.00129022 7.13684e-06 1.61522e-07)
(0.00127918 6.53315e-06 1.48563e-07)
(0.00126908 5.97705e-06 1.37208e-07)
(0.00125979 5.46332e-06 1.27188e-07)
(0.00125122 4.98763e-06 1.18288e-07)
(0.00124328 4.54641e-06 1.10332e-07)
(0.00123591 4.13665e-06 1.03182e-07)
(0.00122904 3.75587e-06 9.67184e-08)
(0.00122262 3.402e-06 9.08479e-08)
(0.00121661 3.07322e-06 8.54927e-08)
(0.00121096 2.76837e-06 8.05867e-08)
(0.00120565 2.48577e-06 7.60798e-08)
(0.00120064 2.22626e-06 7.19066e-08)
(0.00119591 1.98525e-06 6.80625e-08)
(0.00119144 1.77359e-06 6.44599e-08)
(0.0011872 1.56346e-06 6.11365e-08)
(0.00118316 1.42885e-06 5.80396e-08)
(0.00117934 1.18293e-06 5.46613e-08)
(0.00117559 1.3135e-06 5.41452e-08)
(0.00117225 5.98647e-07 3.93136e-08)
(0.0011685 2.10908e-06 8.1572e-08)
(0.00116462 -1.3481e-06 -2.07064e-08)
(0.00560161 1.56281e-05 0.000295385)
(0.00347577 2.40841e-05 6.87263e-05)
(0.00235408 2.62754e-05 1.54538e-05)
(0.00200186 2.55913e-05 3.02374e-06)
(0.00181672 2.38356e-05 1.28811e-06)
(0.00170234 2.17705e-05 8.8348e-07)
(0.00162138 1.96993e-05 7.03196e-07)
(0.00155968 1.77658e-05 5.70218e-07)
(0.00151079 1.60177e-05 4.68036e-07)
(0.0014709 1.446e-05 3.90703e-07)
(0.00143764 1.30792e-05 3.31266e-07)
(0.00140942 1.18554e-05 2.84735e-07)
(0.00138513 1.07677e-05 2.47596e-07)
(0.00136397 9.79688e-06 2.17411e-07)
(0.00134537 8.92597e-06 1.92496e-07)
(0.00132885 8.14065e-06 1.71637e-07)
(0.00131409 7.42893e-06 1.53975e-07)
(0.0013008 6.78091e-06 1.3886e-07)
(0.00128876 6.18841e-06 1.25807e-07)
(0.0012778 5.64471e-06 1.14446e-07)
(0.00126778 5.14426e-06 1.0449e-07)
(0.00125858 4.68245e-06 9.57104e-08)
(0.00125009 4.25546e-06 8.79269e-08)
(0.00124223 3.86008e-06 8.09944e-08)
(0.00123494 3.49363e-06 7.479e-08)
(0.00122815 3.15384e-06 6.92165e-08)
(0.00122181 2.83887e-06 6.41853e-08)
(0.00121588 2.54707e-06 5.96397e-08)
(0.00121031 2.27742e-06 5.55127e-08)
(0.00120508 2.02845e-06 5.17612e-08)
(0.00120016 1.80102e-06 4.83353e-08)
(0.00119551 1.59132e-06 4.52023e-08)
(0.00119112 1.40899e-06 4.23553e-08)
(0.00118696 1.23133e-06 3.96359e-08)
(0.001183 1.12079e-06 3.75171e-08)
(0.00117931 9.28893e-07 3.41986e-08)
(0.00117554 1.04418e-06 3.62491e-08)
(0.00117262 5.45565e-07 1.78336e-08)
(0.00116836 1.70379e-06 7.21712e-08)
(0.00116613 -5.15335e-07 -7.22098e-08)
(0.00560094 1.2886e-05 0.000295428)
(0.00347324 2.10616e-05 6.88154e-05)
(0.00235028 2.37315e-05 1.55517e-05)
(0.00199752 2.36639e-05 3.12786e-06)
(0.00181221 2.23869e-05 1.39143e-06)
(0.00169789 2.06365e-05 9.80941e-07)
(0.00161708 1.87667e-05 7.92586e-07)
(0.0015556 1.69605e-05 6.50987e-07)
(0.00150694 1.52965e-05 5.40513e-07)
(0.00146728 1.37994e-05 4.55633e-07)
(0.00143424 1.24677e-05 3.89544e-07)
(0.00140622 1.1288e-05 3.37251e-07)
(0.00138212 1.02427e-05 2.95184e-07)
(0.00136113 9.31397e-06 2.60815e-07)
(0.00134268 8.4853e-06 2.32344e-07)
(0.0013263 7.74221e-06 2.08476e-07)
(0.00131167 7.0724e-06 1.88246e-07)
(0.00129849 6.46557e-06 1.70932e-07)
(0.00128656 5.91318e-06 1.55986e-07)
(0.0012757 5.40819e-06 1.42979e-07)
(0.00126577 4.94479e-06 1.31578e-07)
(0.00125665 4.51822e-06 1.21517e-07)
(0.00124824 4.1245e-06 1.12587e-07)
(0.00124046 3.76039e-06 1.04613e-07)
(0.00123323 3.42316e-06 9.74522e-08)
(0.00122651 3.11054e-06 9.09986e-08)
(0.00122023 2.82072e-06 8.51433e-08)
(0.00121436 2.55212e-06 7.98212e-08)
(0.00120885 2.30378e-06 7.49573e-08)
(0.00120368 2.0744e-06 7.04949e-08)
(0.00119881 1.86477e-06 6.63951e-08)
(0.00119422 1.67184e-06 6.25886e-08)
(0.00118987 1.50399e-06 5.91364e-08)
(0.00118578 1.34335e-06 5.57084e-08)
(0.00118185 1.24116e-06 5.31725e-08)
(0.00117827 1.08348e-06 4.87132e-08)
(0.00117446 1.16939e-06 5.12361e-08)
(0.00117183 8.27764e-07 2.9071e-08)
(0.00116724 1.67682e-06 8.8311e-08)
(0.00116587 2.95634e-07 -8.05467e-08)
(0.00560043 1.0174e-05 0.000295418)
(0.00347131 1.70114e-05 6.87909e-05)
(0.0023474 1.94198e-05 1.54997e-05)
(0.00199439 1.95643e-05 3.06469e-06)
(0.00180912 1.86545e-05 1.32493e-06)
(0.00169498 1.72905e-05 9.14605e-07)
(0.00161442 1.57846e-05 7.28837e-07)
(0.00155318 1.43022e-05 5.91167e-07)
(0.00150474 1.29196e-05 4.85214e-07)
(0.00146528 1.16651e-05 4.04936e-07)
(0.00143241 1.05423e-05 3.43245e-07)
(0.00140453 9.54316e-06 2.95e-07)
(0.00138054 8.65477e-06 2.56568e-07)
(0.00135966 7.86327e-06 2.25415e-07)
(0.00134128 7.15552e-06 1.99763e-07)
(0.00132498 6.51976e-06 1.78349e-07)
(0.0013104 5.9459e-06 1.60254e-07)
(0.00129727 5.42544e-06 1.44796e-07)
(0.00128539 4.9513e-06 1.31465e-07)
(0.00127457 4.51761e-06 1.19872e-07)
(0.00126468 4.11953e-06 1.09713e-07)
(0.00125559 3.75308e-06 1.00751e-07)
(0.00124721 3.41492e-06 9.27965e-08)
(0.00123945 3.10234e-06 8.57e-08)
(0.00123226 2.81304e-06 7.93341e-08)
(0.00122556 2.54513e-06 7.36032e-08)
(0.00121931 2.29708e-06 6.84224e-08)
(0.00121346 2.06759e-06 6.37213e-08)
(0.00120798 1.85589e-06 5.94379e-08)
(0.00120282 1.66096e-06 5.55255e-08)
(0.00119798 1.48355e-06 5.19542e-08)
(0.00119341 1.32139e-06 4.86368e-08)
(0.00118909 1.18159e-06 4.56908e-08)
(0.00118502 1.05067e-06 4.26711e-08)
(0.00118111 9.69576e-07 4.07582e-08)
(0.00117759 8.53827e-07 3.64117e-08)
(0.00117376 9.28535e-07 4.03466e-08)
(0.00117133 7.16034e-07 1.6885e-08)
(0.00116655 1.35807e-06 8.11716e-08)
(0.00116593 5.38316e-07 -1.01559e-07)
(0.00560017 8.22274e-06 0.00029543)
(0.00347016 1.41092e-05 6.88215e-05)
(0.00234539 1.64737e-05 1.55359e-05)
(0.00199195 1.69033e-05 3.10738e-06)
(0.00180648 1.6352e-05 1.37214e-06)
(0.00169229 1.53172e-05 9.63378e-07)
(0.00161176 1.40886e-05 7.77196e-07)
(0.00155061 1.28303e-05 6.37813e-07)
(0.00150229 1.16276e-05 5.2937e-07)
(0.00146296 1.05188e-05 4.46224e-07)
(0.0014302 9.51659e-06 3.8155e-07)
(0.00140244 8.61946e-06 3.30388e-07)
(0.00137856 7.81958e-06 2.89209e-07)
(0.00135778 7.10651e-06 2.55521e-07)
(0.0013395 6.46947e-06 2.27576e-07)
(0.00132328 5.89833e-06 2.04111e-07)
(0.00130877 5.38409e-06 1.84186e-07)
(0.00129572 4.91901e-06 1.67107e-07)
(0.0012839 4.49652e-06 1.52342e-07)
(0.00127314 4.11114e-06 1.39484e-07)
(0.0012633 3.75829e-06 1.28201e-07)
(0.00125426 3.43417e-06 1.18239e-07)
(0.00124593 3.13565e-06 1.09396e-07)
(0.00123822 2.86011e-06 1.01499e-07)
(0.00123106 2.60539e-06 9.44129e-08)
(0.0012244 2.36971e-06 8.80267e-08)
(0.00121819 2.15161e-06 8.22432e-08)
(0.00121237 1.94991e-06 7.69857e-08)
(0.00120692 1.76387e-06 7.21941e-08)
(0.0012018 1.59263e-06 6.77952e-08)
(0.00119698 1.43682e-06 6.3774e-08)
(0.00119244 1.29474e-06 6.00191e-08)
(0.00118814 1.17223e-06 5.66878e-08)
(0.00118412 1.05942e-06 5.3221e-08)
(0.00118023 9.88144e-07 5.10309e-08)
(0.00117675 8.97387e-07 4.6025e-08)
(0.00117293 9.52053e-07 5.00784e-08)
(0.00117064 8.18764e-07 2.47926e-08)
(0.00116575 1.28423e-06 9.08245e-08)
(0.00116548 7.96937e-07 -1.01703e-07)
(0.00559996 6.37933e-06 0.000295427)
(0.00346924 1.10402e-05 6.88153e-05)
(0.00234381 1.2993e-05 1.55186e-05)
(0.00199008 1.33998e-05 3.08331e-06)
(0.00180451 1.30075e-05 1.34402e-06)
(0.00169035 1.2205e-05 9.32566e-07)
(0.00160993 1.12315e-05 7.45152e-07)
(0.00154892 1.02247e-05 6.05694e-07)
(0.00150074 9.25751e-06 4.98001e-07)
(0.00146154 8.36396e-06 4.16136e-07)
(0.00142891 7.55571e-06 3.53054e-07)
(0.00140126 6.83243e-06 3.03627e-07)
(0.00137747 6.18802e-06 2.64207e-07)
(0.00135677 5.61407e-06 2.32238e-07)
(0.00133855 5.10178e-06 2.05922e-07)
(0.00132239 4.64284e-06 1.83964e-07)
(0.00130793 4.22987e-06 1.65422e-07)
(0.00129492 3.85653e-06 1.49596e-07)
(0.00128313 3.51749e-06 1.35962e-07)
(0.0012724 3.20827e-06 1.24113e-07)
(0.00126259 2.9252e-06 1.13736e-07)
(0.00125357 2.6652e-06 1.04588e-07)
(0.00124526 2.42577e-06 9.64751e-08)
(0.00123757 2.20481e-06 8.92342e-08)
(0.00123043 2.00062e-06 8.27386e-08)
(0.00122379 1.81179e-06 7.68871e-08)
(0.00121759 1.63719e-06 7.15916e-08)
(0.00121178 1.47589e-06 6.67796e-08)
(0.00120635 1.32735e-06 6.23994e-08)
(0.00120124 1.19096e-06 5.83813e-08)
(0.00119643 1.06728e-06 5.47205e-08)
(0.00119191 9.55177e-07 5.12936e-08)
(0.00118763 8.59326e-07 4.82932e-08)
(0.00118362 7.72838e-07 4.51009e-08)
(0.00117974 7.19805e-07 4.32933e-08)
(0.0011763 6.57585e-07 3.84101e-08)
(0.00117248 7.04656e-07 4.32128e-08)
(0.0011703 6.33128e-07 1.74913e-08)
(0.00116535 9.82636e-07 8.58817e-08)
(0.00116544 7.13329e-07 -1.12522e-07)
(0.00559985 4.82813e-06 0.00029543)
(0.00346868 8.44927e-06 6.88258e-05)
(0.00234275 1.00857e-05 1.55316e-05)
(0.00198873 1.05288e-05 3.09971e-06)
(0.00180301 1.03337e-05 1.3637e-06)
(0.00168879 9.78562e-06 9.544e-07)
(0.00160837 9.07381e-06 7.68243e-07)
(0.0015474 8.31159e-06 6.29279e-07)
(0.00149928 7.56279e-06 5.21459e-07)
(0.00146014 6.86002e-06 4.38998e-07)
(0.00142758 6.21694e-06 3.75009e-07)
(0.0014 5.63656e-06 3.24487e-07)
(0.00137627 5.11626e-06 2.83873e-07)
(0.00135562 4.65083e-06 2.5069e-07)
(0.00133746 4.23419e-06 2.23176e-07)
(0.00132135 3.86027e-06 2.00074e-07)
(0.00130694 3.52351e-06 1.80463e-07)
(0.00129396 3.219e-06 1.63653e-07)
(0.00128222 2.94252e-06 1.49112e-07)
(0.00127152 2.6905e-06 1.36446e-07)
(0.00126174 2.45995e-06 1.25328e-07)
(0.00125276 2.24836e-06 1.15507e-07)
(0.00124448 2.05367e-06 1.06787e-07)
(0.00123681 1.87414e-06 9.90021e-08)
(0.0012297 1.70833e-06 9.20113e-08)
(0.00122308 1.55507e-06 8.57163e-08)
(0.0012169 1.41341e-06 8.00145e-08)
(0.00121112 1.28258e-06 7.48328e-08)
(0.0012057 1.1621e-06 7.01106e-08)
(0.00120061 1.05149e-06 6.57825e-08)
(0.00119582 9.51167e-07 6.1827e-08)
(0.00119132 8.60369e-07 5.8124e-08)
(0.00118705 7.82603e-07 5.48778e-08)
(0.00118307 7.13219e-07 5.14117e-08)
(0.0011792 6.69619e-07 4.94225e-08)
(0.0011758 6.22988e-07 4.41722e-08)
(0.00117199 6.54994e-07 4.89631e-08)
(0.00116988 6.14028e-07 2.23477e-08)
(0.0011649 8.56344e-07 9.13202e-08)
(0.00116515 7.02038e-07 -1.11668e-07)
(0.00559976 3.35122e-06 0.000295428)
(0.00346827 5.87521e-06 6.88239e-05)
(0.00234197 7.04128e-06 1.5526e-05)
(0.00198774 7.35769e-06 3.09124e-06)
(0.00180193 7.22126e-06 1.35302e-06)
(0.0016877 6.82797e-06 9.41776e-07)
(0.00160731 6.31505e-06 7.54217e-07)
(0.0015464 5.76528e-06 6.14419e-07)
(0.00149835 5.22579e-06 5.06243e-07)
(0.0014593 4.72078e-06 4.23815e-07)
(0.00142681 4.26036e-06 3.60145e-07)
(0.00139929 3.84662e-06 3.1014e-07)
(0.00137562 3.47743e-06 2.70176e-07)
(0.00135502 3.14873e-06 2.3771e-07)
(0.00133691 2.8558e-06 2.10945e-07)
(0.00132083 2.59401e-06 1.88585e-07)
(0.00130645 2.35911e-06 1.69694e-07)
(0.0012935 2.14738e-06 1.53559e-07)
(0.00128178 1.95567e-06 1.39652e-07)
(0.00127111 1.78131e-06 1.27567e-07)
(0.00126134 1.62208e-06 1.16985e-07)
(0.00125237 1.47617e-06 1.07653e-07)
(0.0012441 1.34207e-06 9.93743e-08)
(0.00123645 1.21853e-06 9.19856e-08)
(0.00122935 1.10454e-06 8.53611e-08)
(0.00122274 9.99273e-07 7.93935e-08)
(0.00121657 9.02065e-07 7.39935e-08)
(0.0012108 8.12387e-07 6.90828e-08)
(0.00120539 7.29943e-07 6.46131e-08)
(0.00120031 6.54419e-07 6.05096e-08)
(0.00119553 5.86152e-07 5.67729e-08)
(0.00119103 5.24696e-07 5.32634e-08)
(0.00118677 4.72534e-07 5.02121e-08)
(0.00118279 4.26776e-07 4.6908e-08)
(0.00117894 3.992e-07 4.51194e-08)
(0.00117556 3.71628e-07 3.99647e-08)
(0.00117175 3.97388e-07 4.51228e-08)
(0.0011697 3.81315e-07 1.83903e-08)
(0.00116471 5.50582e-07 8.84341e-08)
(0.00116513 4.7573e-07 -1.17218e-07)
(0.00559971 1.99019e-06 0.000295428)
(0.00346803 3.50313e-06 6.88265e-05)
(0.00234151 4.23885e-06 1.553e-05)
(0.00198714 4.46391e-06 3.09678e-06)
(0.00180125 4.41941e-06 1.3601e-06)
(0.00168697 4.2144e-06 9.49987e-07)
(0.00160658 3.93052e-06 7.63284e-07)
(0.00154568 3.61758e-06 6.24064e-07)
(0.00149767 3.30469e-06 5.16179e-07)
(0.00145864 3.00747e-06 4.338e-07)
(0.00142618 2.73311e-06 3.69986e-07)
(0.00139869 2.48381e-06 3.19693e-07)
(0.00137506 2.25913e-06 2.79344e-07)
(0.00135448 2.05726e-06 2.46432e-07)
(0.00133639 1.8759e-06 2.19189e-07)
(0.00132033 1.71265e-06 1.9635e-07)
(0.00130598 1.56525e-06 1.76981e-07)
(0.00129305 1.4317e-06 1.60396e-07)
(0.00128135 1.31025e-06 1.46063e-07)
(0.00127069 1.19939e-06 1.33583e-07)
(0.00126094 1.09787e-06 1.22632e-07)
(0.00125199 1.00465e-06 1.12965e-07)
(0.00124373 9.18818e-07 1.04379e-07)
(0.00123609 8.39654e-07 9.67149e-08)
(0.001229 7.66537e-07 8.9839e-08)
(0.0012224 6.98956e-07 8.36408e-08)
(0.00121625 6.36506e-07 7.80297e-08)
(0.00121048 5.78854e-07 7.29313e-08)
(0.00120508 5.25795e-07 6.82877e-08)
(0.00120001 4.77132e-07 6.40252e-08)
(0.00119524 4.33056e-07 6.01415e-08)
(0.00119076 3.93307e-07 5.64956e-08)
(0.00118651 3.59332e-07 5.33141e-08)
(0.00118254 3.2955e-07 4.98804e-08)
(0.0011787 3.10683e-07 4.80002e-08)
(0.00117534 2.92692e-07 4.26778e-08)
(0.00117153 3.05242e-07 4.78027e-08)
(0.00116952 2.96071e-07 2.06992e-08)
(0.00116451 3.88226e-07 9.08955e-08)
(0.001165 3.47712e-07 -1.16704e-07)
(0.00559969 6.53513e-07 0.000295425)
(0.00346791 1.14437e-06 6.8825e-05)
(0.00234128 1.38021e-06 1.55283e-05)
(0.00198683 1.44108e-06 3.09449e-06)
(0.00180091 1.41188e-06 1.35718e-06)
(0.00168662 1.32866e-06 9.46342e-07)
(0.00160624 1.22003e-06 7.59038e-07)
(0.00154536 1.10349e-06 6.19403e-07)
(0.00149736 9.89246e-07 5.11259e-07)
(0.00145836 8.82712e-07 4.28758e-07)
(0.00142593 7.86214e-07 3.64934e-07)
(0.00139846 7.00261e-07 3.14719e-07)
(0.00137485 6.2439e-07 2.74512e-07)
(0.0013543 5.57658e-07 2.41783e-07)
(0.00133622 4.98951e-07 2.14748e-07)
(0.00132018 4.4717e-07 1.92129e-07)
(0.00130583 4.01308e-07 1.72985e-07)
(0.00129292 3.60489e-07 1.56614e-07)
(0.00128122 3.23941e-07 1.42493e-07)
(0.00127057 2.91044e-07 1.30208e-07)
(0.00126083 2.61269e-07 1.19446e-07)
(0.00125188 2.34202e-07 1.09948e-07)
(0.00124363 2.09486e-07 1.01521e-07)
(0.001236 1.86855e-07 9.40003e-08)
(0.00122891 1.66074e-07 8.72573e-08)
(0.00122232 1.46965e-07 8.11812e-08)
(0.00121616 1.29396e-07 7.5681e-08)
(0.00121041 1.13255e-07 7.06849e-08)
(0.00120501 9.84867e-08 6.61332e-08)
(0.00119994 8.5024e-08 6.19601e-08)
(0.00119518 7.29542e-08 5.81566e-08)
(0.00119069 6.221e-08 5.45854e-08)
(0.00118645 5.32704e-08 5.14799e-08)
(0.00118249 4.56729e-08 4.81068e-08)
(0.00117865 4.16342e-08 4.63022e-08)
(0.00117529 3.8018e-08 4.10204e-08)
(0.00117149 4.45574e-08 4.62625e-08)
(0.00116949 4.48417e-08 1.91581e-08)
(0.00116449 7.98598e-08 8.96263e-08)
(0.00116504 7.25704e-08 -1.18813e-07)
(0.00559969 -6.53519e-07 0.000295425)
(0.00346791 -1.14438e-06 6.8825e-05)
(0.00234128 -1.38021e-06 1.55283e-05)
(0.00198683 -1.44108e-06 3.09449e-06)
(0.00180091 -1.41188e-06 1.35718e-06)
(0.00168662 -1.32866e-06 9.46341e-07)
(0.00160624 -1.22004e-06 7.59037e-07)
(0.00154536 -1.10349e-06 6.19403e-07)
(0.00149736 -9.89242e-07 5.11259e-07)
(0.00145836 -8.82711e-07 4.28758e-07)
(0.00142593 -7.86215e-07 3.64933e-07)
(0.00139846 -7.00269e-07 3.14719e-07)
(0.00137485 -6.24393e-07 2.74512e-07)
(0.0013543 -5.57654e-07 2.41781e-07)
(0.00133622 -4.98953e-07 2.14747e-07)
(0.00132018 -4.47176e-07 1.9213e-07)
(0.00130583 -4.0132e-07 1.72982e-07)
(0.00129292 -3.60487e-07 1.56616e-07)
(0.00128122 -3.23941e-07 1.42495e-07)
(0.00127057 -2.91042e-07 1.30209e-07)
(0.00126083 -2.61273e-07 1.19445e-07)
(0.00125188 -2.34202e-07 1.09946e-07)
(0.00124363 -2.09489e-07 1.01524e-07)
(0.001236 -1.86855e-07 9.39999e-08)
(0.00122891 -1.66076e-07 8.72548e-08)
(0.00122232 -1.46968e-07 8.11781e-08)
(0.00121616 -1.294e-07 7.56809e-08)
(0.00121041 -1.13259e-07 7.06846e-08)
(0.00120501 -9.84876e-08 6.61347e-08)
(0.00119994 -8.503e-08 6.19569e-08)
(0.00119518 -7.29601e-08 5.81569e-08)
(0.00119069 -6.22087e-08 5.45867e-08)
(0.00118645 -5.32754e-08 5.14788e-08)
(0.00118249 -4.5678e-08 4.81062e-08)
(0.00117865 -4.16354e-08 4.63007e-08)
(0.00117529 -3.80256e-08 4.10217e-08)
(0.00117149 -4.45696e-08 4.62601e-08)
(0.00116949 -4.48535e-08 1.91551e-08)
(0.00116449 -7.98692e-08 8.96273e-08)
(0.00116504 -7.25771e-08 -1.18812e-07)
(0.00559971 -1.9902e-06 0.000295428)
(0.00346803 -3.50313e-06 6.88265e-05)
(0.00234151 -4.23885e-06 1.553e-05)
(0.00198714 -4.4639e-06 3.09678e-06)
(0.00180125 -4.41941e-06 1.36009e-06)
(0.00168697 -4.2144e-06 9.49987e-07)
(0.00160658 -3.93052e-06 7.63283e-07)
(0.00154568 -3.61758e-06 6.24063e-07)
(0.00149767 -3.30469e-06 5.16181e-07)
(0.00145864 -3.00748e-06 4.33799e-07)
(0.00142618 -2.73311e-06 3.69985e-07)
(0.00139869 -2.48381e-06 3.19693e-07)
(0.00137506 -2.25913e-06 2.79343e-07)
(0.00135448 -2.05726e-06 2.46431e-07)
(0.00133639 -1.87591e-06 2.19191e-07)
(0.00132033 -1.71266e-06 1.9635e-07)
(0.00130598 -1.56526e-06 1.76985e-07)
(0.00129305 -1.4317e-06 1.60394e-07)
(0.00128135 -1.31025e-06 1.46063e-07)
(0.00127069 -1.19939e-06 1.33581e-07)
(0.00126094 -1.09788e-06 1.22632e-07)
(0.00125199 -1.00465e-06 1.12964e-07)
(0.00124373 -9.1882e-07 1.04379e-07)
(0.00123609 -8.39655e-07 9.67141e-08)
(0.001229 -7.6654e-07 8.98376e-08)
(0.0012224 -6.98959e-07 8.36401e-08)
(0.00121625 -6.36509e-07 7.80291e-08)
(0.00121048 -5.78853e-07 7.29311e-08)
(0.00120508 -5.25795e-07 6.82857e-08)
(0.00120001 -4.77131e-07 6.40234e-08)
(0.00119524 -4.33058e-07 6.01414e-08)
(0.00119076 -3.93308e-07 5.64956e-08)
(0.00118651 -3.59332e-07 5.33187e-08)
(0.00118254 -3.29555e-07 4.98821e-08)
(0.0011787 -3.10685e-07 4.80021e-08)
(0.00117534 -2.92696e-07 4.26797e-08)
(0.00117153 -3.05242e-07 4.78003e-08)
(0.00116952 -2.96076e-07 2.06969e-08)
(0.00116451 -3.88227e-07 9.08965e-08)
(0.001165 -3.47712e-07 -1.16708e-07)
(0.00559976 -3.35122e-06 0.000295428)
(0.00346827 -5.87521e-06 6.88239e-05)
(0.00234197 -7.04128e-06 1.5526e-05)
(0.00198774 -7.35769e-06 3.09124e-06)
(0.00180193 -7.22126e-06 1.35302e-06)
(0.0016877 -6.82798e-06 9.41777e-07)
(0.00160731 -6.31505e-06 7.54215e-07)
(0.0015464 -5.76528e-06 6.1442e-07)
(0.00149835 -5.22579e-06 5.06242e-07)
(0.0014593 -4.72078e-06 4.23817e-07)
(0.00142681 -4.26036e-06 3.60144e-07)
(0.00139929 -3.84662e-06 3.10138e-07)
(0.00137562 -3.47743e-06 2.70177e-07)
(0.00135502 -3.14873e-06 2.37708e-07)
(0.00133691 -2.85581e-06 2.10941e-07)
(0.00132083 -2.59401e-06 1.88584e-07)
(0.00130645 -2.35911e-06 1.69691e-07)
(0.0012935 -2.14738e-06 1.53558e-07)
(0.00128178 -1.95567e-06 1.39653e-07)
(0.00127111 -1.78131e-06 1.27568e-07)
(0.00126134 -1.62208e-06 1.16984e-07)
(0.00125237 -1.47617e-06 1.07654e-07)
(0.0012441 -1.34207e-06 9.93758e-08)
(0.00123645 -1.21854e-06 9.199e-08)
(0.00122935 -1.10455e-06 8.53629e-08)
(0.00122274 -9.99274e-07 7.93948e-08)
(0.00121657 -9.02065e-07 7.39921e-08)
(0.0012108 -8.12392e-07 6.90811e-08)
(0.00120539 -7.29946e-07 6.46099e-08)
(0.00120031 -6.54421e-07 6.051e-08)
(0.00119553 -5.86155e-07 5.67731e-08)
(0.00119103 -5.24698e-07 5.32655e-08)
(0.00118677 -4.72527e-07 5.02118e-08)
(0.00118279 -4.26771e-07 4.6905e-08)
(0.00117894 -3.99203e-07 4.51217e-08)
(0.00117556 -3.71631e-07 3.99644e-08)
(0.00117175 -3.97384e-07 4.51224e-08)
(0.0011697 -3.81313e-07 1.83896e-08)
(0.00116471 -5.50581e-07 8.8437e-08)
(0.00116513 -4.7573e-07 -1.17219e-07)
(0.00559985 -4.82814e-06 0.00029543)
(0.00346868 -8.44928e-06 6.88258e-05)
(0.00234275 -1.00857e-05 1.55316e-05)
(0.00198873 -1.05288e-05 3.09972e-06)
(0.00180301 -1.03337e-05 1.3637e-06)
(0.00168879 -9.78563e-06 9.544e-07)
(0.00160837 -9.07381e-06 7.68242e-07)
(0.0015474 -8.31158e-06 6.29282e-07)
(0.00149928 -7.56279e-06 5.21457e-07)
(0.00146014 -6.86002e-06 4.38998e-07)
(0.00142758 -6.21694e-06 3.7501e-07)
(0.0014 -5.63656e-06 3.24486e-07)
(0.00137627 -5.11626e-06 2.83872e-07)
(0.00135562 -4.65084e-06 2.50689e-07)
(0.00133746 -4.23419e-06 2.23177e-07)
(0.00132135 -3.86027e-06 2.00075e-07)
(0.00130694 -3.52351e-06 1.80467e-07)
(0.00129396 -3.219e-06 1.63651e-07)
(0.00128222 -2.94252e-06 1.49114e-07)
(0.00127152 -2.6905e-06 1.36444e-07)
(0.00126174 -2.45995e-06 1.25328e-07)
(0.00125276 -2.24837e-06 1.15511e-07)
(0.00124448 -2.05367e-06 1.06788e-07)
(0.00123681 -1.87414e-06 9.89995e-08)
(0.0012297 -1.70834e-06 9.20112e-08)
(0.00122308 -1.55508e-06 8.57141e-08)
(0.0012169 -1.41342e-06 8.00128e-08)
(0.00121112 -1.28258e-06 7.48324e-08)
(0.0012057 -1.1621e-06 7.01069e-08)
(0.00120061 -1.05149e-06 6.57767e-08)
(0.00119582 -9.5117e-07 6.18294e-08)
(0.00119132 -8.60371e-07 5.81266e-08)
(0.00118705 -7.82598e-07 5.48802e-08)
(0.00118307 -7.13215e-07 5.1414e-08)
(0.0011792 -6.69622e-07 4.94227e-08)
(0.0011758 -6.22984e-07 4.41737e-08)
(0.00117199 -6.54996e-07 4.89648e-08)
(0.00116988 -6.14023e-07 2.23473e-08)
(0.0011649 -8.56342e-07 9.13185e-08)
(0.00116515 -7.0204e-07 -1.11667e-07)
(0.00559996 -6.37934e-06 0.000295427)
(0.00346924 -1.10402e-05 6.88153e-05)
(0.00234381 -1.2993e-05 1.55186e-05)
(0.00199008 -1.33998e-05 3.08331e-06)
(0.00180451 -1.30075e-05 1.34402e-06)
(0.00169035 -1.2205e-05 9.32567e-07)
(0.00160993 -1.12315e-05 7.4515e-07)
(0.00154892 -1.02247e-05 6.05696e-07)
(0.00150074 -9.25751e-06 4.97999e-07)
(0.00146154 -8.36396e-06 4.16133e-07)
(0.00142891 -7.55571e-06 3.53052e-07)
(0.00140126 -6.83243e-06 3.03626e-07)
(0.00137747 -6.18802e-06 2.64205e-07)
(0.00135677 -5.61408e-06 2.32239e-07)
(0.00133855 -5.10178e-06 2.05921e-07)
(0.00132239 -4.64283e-06 1.83963e-07)
(0.00130793 -4.22987e-06 1.6542e-07)
(0.00129492 -3.85654e-06 1.49595e-07)
(0.00128313 -3.51749e-06 1.35963e-07)
(0.0012724 -3.20828e-06 1.24114e-07)
(0.00126259 -2.9252e-06 1.13741e-07)
(0.00125357 -2.6652e-06 1.04589e-07)
(0.00124526 -2.42577e-06 9.64773e-08)
(0.00123757 -2.20481e-06 8.92327e-08)
(0.00123043 -2.00063e-06 8.27363e-08)
(0.00122379 -1.8118e-06 7.68845e-08)
(0.00121759 -1.6372e-06 7.15903e-08)