/*--------------------------------*- C++ -*----------------------------------*\
| =========                 |                                                 |
| \\      /  F ield         | OpenFOAM: The Open Source CFD Toolbox           |
|  \\    /   O peration     | Version:  5.0                                   |
|   \\  /    A nd           | Web:      www.OpenFOAM.org                      |
|    \\/     M anipulation  |                                                 |
\*---------------------------------------------------------------------------*/
FoamFile
{
    version     2.0;
    format      ascii;
    class       volScalarField;
    location    "550/air";
    object      alphat;
}
// * * * * * * * * * * * * * * * * * * * * * * * * * * * * * * * * * * * * * //

dimensions      [1 -1 -1 0 0 0 0];

internalField   nonuniform List<scalar> 
243000
(
0.000218195
0.000216182
0.000207847
0.000198096
0.000187444
0.000176551
0.000165828
0.000155623
0.000146114
0.00013761
0.000130237
0.000124283
0.000119462
0.000115245
0.000111287
0.000107422
0.000103471
9.9385e-05
9.47769e-05
8.91678e-05
8.28295e-05
7.81444e-05
9.24404e-05
0.000104371
0.000114589
0.000124263
0.00013328
0.000142673
0.000154379
0.000170064
0.000996931
0.00102528
0.00101158
0.000990702
0.000963465
0.00093233
0.000898988
0.000864749
0.00083036
0.000797345
0.000766098
0.000737864
0.000711498
0.000688069
0.00066731
0.000647196
0.000625103
0.000600375
0.000569026
0.000534873
0.000487959
0.000463694
0.000556071
0.000614022
0.000657918
0.000697039
0.000723108
0.000745346
0.000775285
0.000822006
0.00109843
0.00112544
0.00111135
0.00108842
0.00105855
0.00102437
0.000987673
0.000949879
0.000911902
0.000875468
0.000841073
0.000810109
0.000780932
0.000754784
0.000731541
0.0007091
0.000684522
0.000656679
0.000621355
0.000586025
0.000543079
0.000512636
0.000608047
0.000682734
0.000741032
0.000789098
0.00082005
0.000844752
0.000875657
0.000920494
0.00116374
0.00118716
0.0011747
0.0011524
0.00112282
0.00108859
0.00105136
0.00101253
0.00097323
0.000935379
0.000899735
0.000868015
0.000838015
0.000810456
0.000785217
0.000760401
0.000733048
0.000701664
0.000663104
0.000626858
0.000586554
0.00055644
0.000640454
0.000732507
0.000802793
0.000857638
0.000892473
0.000919143
0.000950218
0.000992647
0.00120823
0.00122693
0.00121628
0.00119563
0.00116765
0.0011348
0.00109843
0.00105992
0.00102051
0.000982371
0.000946623
0.000915196
0.000885364
0.000857142
0.000830352
0.000803398
0.000773424
0.000738641
0.000697938
0.00066133
0.000624353
0.000597213
0.000664663
0.000768522
0.000847633
0.000908727
0.00094722
0.000976044
0.00100739
0.00104741
0.00123886
0.0012526
0.00124359
0.00122498
0.00119924
0.00116846
0.0011337
0.00109625
0.00105745
0.0010197
0.000984533
0.000953971
0.000924805
0.000896362
0.000868393
0.000839582
0.00080732
0.000769522
0.000727713
0.000691285
0.000657732
0.00063443
0.00068542
0.000794485
0.000877974
0.000945592
0.000988137
0.00101957
0.00105145
0.00108947
0.00125842
0.00126845
0.00126091
0.00124452
0.00122131
0.00119294
0.00116018
0.00112421
0.00108645
0.00104955
0.00101537
0.000985969
0.00095769
0.00092932
0.000900447
0.000870101
0.000835869
0.000795576
0.000753487
0.000717608
0.00068718
0.000667764
0.000704902
0.000813059
0.000897272
0.000970046
0.00101763
0.00105223
0.00108497
0.00112147
0.00126916
0.00127705
0.00127091
0.00125677
0.00123624
0.00121042
0.00117987
0.00114563
0.0011092
0.00107342
0.00104048
0.00101236
0.000985053
0.000956929
0.000927406
0.000895833
0.000859959
0.000817664
0.000775988
0.00074086
0.000713034
0.000697149
0.000724873
0.000825081
0.000909064
0.000985086
0.00103703
0.0010755
0.0011095
0.00114497
0.00127305
0.00128013
0.0012754
0.00126347
0.00124551
0.00122231
0.00119411
0.00116176
0.00112687
0.00109244
0.00106085
0.00103403
0.00100769
0.000979922
0.00094997
0.000917468
0.000880318
0.000836474
0.000795873
0.000761494
0.000735617
0.000722677
0.000744838
0.00083331
0.000917736
0.000992184
0.00104881
0.00109083
0.00112633
0.0011613
0.0012718
0.00127909
0.00127617
0.00126626
0.00125069
0.00122985
0.00120379
0.00117345
0.0011403
0.00110737
0.00107723
0.00105165
0.00102625
0.00099887
0.000968712
0.000935581
0.000897493
0.000853771
0.000813789
0.000779903
0.00075529
0.00074458
0.000763524
0.000839653
0.000923213
0.000993382
0.0010539
0.00109962
0.0011369
0.00117187
0.00126677
0.00127463
0.00127361
0.00126616
0.00125272
0.00123407
0.00121004
0.00118149
0.00115008
0.0011188
0.00109015
0.00106576
0.00104122
0.00101428
0.000984125
0.000950653
0.000911905
0.000869132
0.000829863
0.000796323
0.000772395
0.000763203
0.000780208
0.000844931
0.000926463
0.000991995
0.00105393
0.00110284
0.00114198
0.00117737
0.00125827
0.00126719
0.00126824
0.00126324
0.00125228
0.00123562
0.00121346
0.00118664
0.00115683
0.00112721
0.00110004
0.00107678
0.00105302
0.00102658
0.000996637
0.000963095
0.000923927
0.000882591
0.000844193
0.00081097
0.000787248
0.000778909
0.000794491
0.000849421
0.000927963
0.000989743
0.00104879
0.00110149
0.00114271
0.00117872
0.00124676
0.00125725
0.00126048
0.00125796
0.00124942
0.00123495
0.00121456
0.00118933
0.00116109
0.00113295
0.00110727
0.00108505
0.00106202
0.00103618
0.00100663
0.000973263
0.00093395
0.000894378
0.000856985
0.000824049
0.000800163
0.000791905
0.000805963
0.00085343
0.000927423
0.000986424
0.0010412
0.00109542
0.00113909
0.00117629
0.00123256
0.00124512
0.00125068
0.00125067
0.00124438
0.00123206
0.00121359
0.00118999
0.00116323
0.00113653
0.00111214
0.00109089
0.00106858
0.00104342
0.00101443
0.000981449
0.000942584
0.000904899
0.000868512
0.000835791
0.000811366
0.000802313
0.000814594
0.000856453
0.00092488
0.000982155
0.00103383
0.00108564
0.00113173
0.00117038
0.00121594
0.00123104
0.00123911
0.00124154
0.00123748
0.00122713
0.00121057
0.00118873
0.00116358
0.00113824
0.00111499
0.00109456
0.00107301
0.00104863
0.00102035
0.000987907
0.000950663
0.000914488
0.000879011
0.000846397
0.000821096
0.000810202
0.000820493
0.000858067
0.000920887
0.000976975
0.00102621
0.00107418
0.00112125
0.00116148
0.00119712
0.0012152
0.0012259
0.00123073
0.00122889
0.00122042
0.00120561
0.00118558
0.00116218
0.00113837
0.00111618
0.00109644
0.00107558
0.00105207
0.00102466
0.000992877
0.000957842
0.000923225
0.000888655
0.000856062
0.000829532
0.000816072
0.000823946
0.000858282
0.000915748
0.000970945
0.00101831
0.00106352
0.00110838
0.00114998
0.00117668
0.00119777
0.00121118
0.00121835
0.0012187
0.00121206
0.00119891
0.00118066
0.0011591
0.0011369
0.00111595
0.00109693
0.00107669
0.00105403
0.00102757
0.000996642
0.00096415
0.000931214
0.000897605
0.000865001
0.000837006
0.000820509
0.000825453
0.00085672
0.000909603
0.000964139
0.00101006
0.00105316
0.00109494
0.00113626
0.00115715
0.00117903
0.00119509
0.00120454
0.00120695
0.00120213
0.00119066
0.00117412
0.00115442
0.00113388
0.00111423
0.00109607
0.00107666
0.00105481
0.0010293
0.00100002
0.000969936
0.000938667
0.000906052
0.00087343
0.000843873
0.000824099
0.000825334
0.000853346
0.00090253
0.000956643
0.00100143
0.00104292
0.00108233
0.0011207
0.00113873
0.00116112
0.0011782
0.00118951
0.00119381
0.00119078
0.00118099
0.00116622
0.00114828
0.00112935
0.001111
0.00109378
0.0010753
0.00105454
0.00103009
0.00100335
0.000975444
0.00094579
0.000914183
0.000881575
0.000850531
0.000827366
0.000823871
0.000848287
0.000894614
0.000948572
0.000992441
0.00103262
0.00107
0.00110456
0.00112117
0.00114414
0.00116212
0.00117404
0.00117955
0.00117817
0.00117001
0.00115699
0.00114081
0.00112352
0.0011065
0.00109027
0.0010728
0.00105319
0.00103081
0.00100669
0.000980843
0.000952764
0.000922185
0.000889672
0.000857302
0.000830796
0.000821735
0.000841843
0.000886015
0.000940088
0.00098314
0.0010222
0.00105789
0.00108977
0.00110421
0.00112795
0.00114671
0.00115937
0.00116543
0.00116493
0.00115803
0.00114663
0.00113225
0.00111668
0.00110105
0.00108586
0.00106977
0.00105195
0.00103206
0.00101023
0.000986309
0.000959766
0.000930237
0.000897948
0.00086448
0.000834756
0.000819841
0.000834555
0.000877016
0.000931408
0.000973671
0.0010117
0.00104595
0.00107591
0.0010878
0.00111239
0.00113187
0.00114533
0.00115199
0.00115248
0.00114687
0.00113709
0.00112451
0.0011107
0.00109656
0.00108257
0.00106783
0.00105184
0.00103396
0.00101414
0.000992026
0.000966992
0.000938564
0.000906665
0.000872376
0.000839729
0.000819035
0.000827237
0.00086809
0.000922815
0.000964246
0.00100125
0.00103421
0.00106273
0.00107192
0.00109736
0.00111753
0.0011317
0.00113919
0.00114068
0.00113644
0.00112829
0.00111752
0.0011055
0.00109295
0.00108028
0.00106701
0.00105262
0.0010366
0.00101865
0.000998269
0.000974756
0.000947515
0.000916209
0.000881418
0.000846291
0.000820146
0.00082105
0.000860125
0.000914837
0.000955316
0.000991188
0.00102287
0.00105021
0.00105661
0.00108279
0.0011036
0.00111852
0.00112698
0.00112947
0.00112665
0.00112017
0.00111125
0.00110106
0.00109018
0.001079
0.00106734
0.00105456
0.00104033
0.00102423
0.00100564
0.000983747
0.000957843
0.000927351
0.000892383
0.000855253
0.000823942
0.00081732
0.000854312
0.000908175
0.000947504
0.000982052
0.00101234
0.00103853
0.00104209
0.00106887
0.00109024
0.00110587
0.00111535
0.00111882
0.00111751
0.00111278
0.00110579
0.00109756
0.00108854
0.00107918
0.00106924
0.00105838
0.0010462
0.00103219
0.00101563
0.000995587
0.000971235
0.000941777
0.000906918
0.000868163
0.00083217
0.000818482
0.000852797
0.0009038
0.000941513
0.000974337
0.00100297
0.00102792
0.00102908
0.00105613
0.00107778
0.00109394
0.00110452
0.00110899
0.00110931
0.00110651
0.00110174
0.00109584
0.00108925
0.00108224
0.00107481
0.00106663
0.00105721
0.00104592
0.00103186
0.001014
0.00099141
0.000963112
0.000928489
0.000888358
0.000847981
0.00082644
0.00085754
0.000904094
0.000938906
0.000969068
0.000995591
0.00101899
0.00101946
0.00104622
0.00106781
0.0010843
0.00109589
0.00110179
0.00110422
0.00110411
0.00110252
0.0011001
0.00109729
0.0010943
0.00109101
0.001087
0.00108166
0.00107402
0.00106288
0.00104734
0.00102639
0.000999071
0.000964552
0.000923202
0.000879105
0.000850074
0.000873836
0.000912314
0.00094305
0.000969617
0.000992852
0.00101376
0.00102033
0.00104624
0.00106783
0.00108539
0.00109927
0.0011084
0.001115
0.00112
0.00112413
0.00112806
0.00113219
0.00113651
0.00114033
0.00114258
0.00114232
0.00113851
0.00112986
0.00111575
0.0010954
0.00106821
0.00103347
0.000991561
0.000946713
0.000912649
0.000922601
0.000947146
0.000968834
0.00098777
0.00100476
0.00102067
0.00109013
0.00111438
0.00113662
0.00115669
0.00117445
0.00119036
0.0012053
0.00121893
0.00123156
0.00124499
0.0012593
0.00127351
0.00128524
0.00129301
0.00129586
0.00129334
0.00128477
0.00127034
0.00124948
0.00122271
0.00118997
0.00115231
0.00111536
0.00108499
0.00107782
0.00108275
0.0010881
0.00109195
0.0010954
0.00109988
0.00149015
0.00150336
0.00151653
0.00152899
0.00153677
0.00154614
0.0015582
0.00156671
0.00157329
0.00158419
0.00159812
0.00161135
0.00161834
0.00161974
0.00161597
0.00160871
0.00159776
0.00158509
0.00156858
0.00155179
0.00153555
0.00152062
0.00151005
0.00150788
0.0015096
0.00151196
0.00151229
0.00150998
0.00150585
0.0015015
0.000266597
0.00026962
0.000261633
0.00025016
0.00023676
0.000222543
0.000208207
0.000194255
0.000180888
0.000168552
0.000157323
0.000147614
0.000138659
0.000130322
0.000122383
0.000114656
0.000106782
0.000102028
9.92671e-05
0.000100654
9.20355e-05
9.53948e-05
0.000109519
0.000130129
0.000146249
0.000154613
0.000160872
0.000165266
0.000176108
0.000193492
0.00120657
0.00128607
0.00118271
0.00105036
0.000924026
0.000814091
0.00072074
0.000641571
0.000574458
0.000518988
0.00047005
0.000424368
0.000383475
0.000370582
0.000380951
0.000401217
0.000421853
0.000449628
0.000474976
0.000517568
0.000505744
0.000551295
0.000689617
0.000810475
0.000873989
0.000880081
0.000876344
0.00083861
0.000782703
0.00076947
0.00201946
0.00221164
0.00210915
0.00192472
0.0017234
0.00153354
0.00136423
0.00121669
0.00109053
0.000986575
0.000895986
0.000811373
0.00073868
0.000718571
0.000736773
0.000766081
0.000791722
0.000824795
0.000872413
0.000958109
0.000977515
0.00104557
0.00124194
0.00144065
0.00154592
0.00156862
0.00156862
0.0015182
0.00142978
0.00142563
0.00267322
0.00291185
0.00283988
0.00265262
0.00242055
0.0021847
0.00196326
0.0017635
0.00159064
0.00144537
0.0013152
0.00120083
0.00110654
0.00107889
0.0010958
0.00112195
0.00114098
0.00117322
0.00124166
0.00136427
0.00142315
0.0015107
0.00173628
0.00198493
0.0021224
0.00216623
0.00217803
0.0021325
0.00203732
0.00204947
0.00320366
0.0034495
0.00340974
0.0032384
0.003001
0.00274336
0.00248988
0.00225408
0.00204415
0.00186523
0.00170989
0.00157511
0.0014672
0.0014314
0.00144035
0.00145582
0.00146202
0.00149377
0.00158281
0.00173443
0.00183274
0.00194207
0.00217956
0.00246013
0.00262317
0.00268843
0.00271639
0.00268469
0.00259655
0.0026211
0.00364321
0.00387289
0.00385854
0.00370894
0.00347978
0.00321598
0.00294529
0.0026862
0.00244914
0.0022468
0.00207574
0.0019296
0.00181417
0.00176922
0.00176554
0.00176549
0.00175603
0.00179138
0.00189918
0.00207087
0.00220057
0.00232991
0.00256683
0.00285575
0.00304851
0.0031413
0.0031894
0.0031783
0.00310333
0.00313548
0.0040049
0.00421051
0.00421454
0.00408728
0.00387371
0.00361385
0.00333677
0.0030644
0.00281023
0.00259209
0.00241299
0.0022638
0.00214432
0.0020891
0.00206954
0.00205111
0.00202587
0.00207104
0.002186
0.00236887
0.00252237
0.00266906
0.00288841
0.00316777
0.00339098
0.00351958
0.00359604
0.00361243
0.003556
0.0035917
0.00429824
0.00448252
0.00449593
0.0043898
0.00419648
0.00394709
0.00367183
0.00339447
0.00313332
0.00290606
0.00272208
0.00257593
0.00245558
0.00238906
0.00235138
0.00231358
0.00227567
0.00232887
0.00244107
0.00262663
0.00279655
0.00295174
0.00314822
0.00340315
0.00365928
0.00382771
0.0039358
0.00398338
0.00395297
0.00398682
0.0045358
0.00470468
0.00472667
0.00463512
0.00445785
0.00422305
0.00395643
0.00368142
0.00342024
0.00319271
0.00300659
0.0028632
0.00274568
0.00266791
0.00261052
0.0025542
0.00251109
0.0025621
0.00266348
0.00284285
0.00301961
0.00317593
0.00334845
0.0036077
0.0038737
0.00407348
0.00421329
0.00429189
0.0042931
0.00432663
0.00474269
0.00490211
0.00492596
0.00484257
0.00467762
0.00445359
0.004194
0.00392798
0.00367386
0.00345205
0.0032706
0.00312777
0.0030104
0.00292439
0.00284748
0.00277488
0.00273289
0.00276849
0.00285362
0.00301821
0.00319339
0.00334769
0.00352082
0.00377871
0.00404611
0.00427198
0.00442922
0.00453863
0.00457385
0.0046108
0.0049258
0.00505982
0.00508815
0.00502186
0.0048652
0.0046512
0.00440015
0.0041399
0.00389639
0.00368468
0.00351156
0.00337403
0.00325271
0.003155
0.00306312
0.00297823
0.00293942
0.00295034
0.00301237
0.00315507
0.00332232
0.00347735
0.00366223
0.00391538
0.00418704
0.00443465
0.0046119
0.00472931
0.00479368
0.00484533
0.00504708
0.00516959
0.00520527
0.00516031
0.00502744
0.00482222
0.00457957
0.00432708
0.00409095
0.00389243
0.00372954
0.00359837
0.0034749
0.0033651
0.00325944
0.00316793
0.00313001
0.00310958
0.00314159
0.00325668
0.00341309
0.00357829
0.00376929
0.00401541
0.00427199
0.00452232
0.00473934
0.00488755
0.00496971
0.00503741
0.00512462
0.00524419
0.00529035
0.00526318
0.00515391
0.00497074
0.00473725
0.00449268
0.00426587
0.00407868
0.00392586
0.0038003
0.00367483
0.00355579
0.00343979
0.00334985
0.00330397
0.00324792
0.00324419
0.00332798
0.00347323
0.00364681
0.00383919
0.00405574
0.00429772
0.00455633
0.00479604
0.00497792
0.00508629
0.00518622
0.00516293
0.00528722
0.00534676
0.00533786
0.00524934
0.00508842
0.0048749
0.0046399
0.00442312
0.00424456
0.00410228
0.0039814
0.00385434
0.00372865
0.00360767
0.00352333
0.00345892
0.00336714
0.00332385
0.00337289
0.00350152
0.00367413
0.00385154
0.00404832
0.00427709
0.00454335
0.00480758
0.00502503
0.00515965
0.00529012
0.00516763
0.00530248
0.00537763
0.00538669
0.00532066
0.00517858
0.00498641
0.00477094
0.00456468
0.00439606
0.00426143
0.00414403
0.00401622
0.00388724
0.00376722
0.00368728
0.00359537
0.00346919
0.00338439
0.00339496
0.0034992
0.00364803
0.00381725
0.00400523
0.00422731
0.004496
0.00477942
0.00503298
0.00519679
0.0053544
0.00514708
0.00529405
0.0053851
0.00541131
0.00537009
0.00524826
0.00507549
0.00488063
0.00469236
0.00453496
0.00440617
0.00429129
0.00416425
0.00403621
0.00392494
0.00384047
0.00371576
0.00355624
0.00342991
0.00339831
0.00346083
0.00358829
0.00375295
0.00393941
0.00415268
0.00442042
0.00471655
0.00500078
0.00520188
0.00538391
0.00510891
0.00526575
0.00537199
0.0054171
0.00539965
0.00530085
0.00514599
0.00497365
0.00480882
0.00466306
0.00453971
0.0044269
0.00430338
0.00417799
0.00407674
0.00397885
0.00382019
0.0036293
0.00346407
0.00338726
0.00340201
0.00350935
0.00366852
0.00385339
0.00405821
0.00432304
0.00462701
0.00493612
0.00517933
0.00538389
0.00504282
0.0052261
0.00534539
0.00541008
0.00541329
0.00533968
0.00520306
0.00505888
0.00491684
0.00478108
0.00466538
0.00455481
0.00443262
0.00432006
0.0042172
0.00409395
0.00390676
0.00368782
0.00348785
0.00336494
0.0033358
0.003413
0.00356809
0.00375097
0.00394943
0.0042105
0.00451952
0.00484472
0.00512119
0.00536163
0.0049498
0.00515681
0.00531409
0.00539982
0.00541898
0.00537086
0.00525814
0.00514571
0.00501802
0.00489277
0.0047819
0.00467671
0.00456355
0.00445152
0.00433563
0.00418114
0.00397087
0.00372886
0.00349951
0.00333396
0.00326398
0.00331123
0.00345656
0.00363716
0.00383209
0.00408974
0.0044011
0.00473474
0.005036
0.00532578
0.00483757
0.0050666
0.00525794
0.00538438
0.00543059
0.00540428
0.0053234
0.00522608
0.00511378
0.00500411
0.00489885
0.00479352
0.00467777
0.00455518
0.00441391
0.00423182
0.00400391
0.00374531
0.00349359
0.00329404
0.00318732
0.00320672
0.00333485
0.00351683
0.00371251
0.00396843
0.00427706
0.00461351
0.00493211
0.00525286
0.00471168
0.00496473
0.00518787
0.0053496
0.00542725
0.00543326
0.00537674
0.00529866
0.00520108
0.00509832
0.00499266
0.0048803
0.00474984
0.00460453
0.00443508
0.00423144
0.00399208
0.00372484
0.00346097
0.003239
0.00310272
0.00309622
0.00321331
0.00339493
0.00359693
0.00385156
0.00415401
0.00448741
0.00481609
0.00515104
0.00458362
0.00485926
0.00510755
0.00528743
0.00538516
0.00543093
0.00539621
0.00533113
0.00524278
0.00514084
0.00502744
0.00489999
0.0047479
0.00457566
0.00437843
0.00415984
0.0039161
0.00365051
0.00338803
0.00315858
0.00300295
0.00297629
0.0030916
0.00327477
0.00348441
0.00373982
0.00403485
0.00436056
0.00469
0.00502804
0.00446204
0.00474866
0.00499526
0.00518569
0.00532508
0.00539054
0.00537082
0.0053103
0.00522056
0.00510893
0.0049776
0.00482551
0.00464484
0.0044434
0.00422114
0.0039954
0.00375739
0.00350638
0.00326061
0.00304085
0.00288002
0.00283851
0.00296
0.00316832
0.00339085
0.00364628
0.00393508
0.00424822
0.0045692
0.0048949
0.00433307
0.00460908
0.00485336
0.00507356
0.00522778
0.00529297
0.00527368
0.00520646
0.00510349
0.00496901
0.0048082
0.00462425
0.00441421
0.00418851
0.0039511
0.00373057
0.0035138
0.00329213
0.00307908
0.00288537
0.00273322
0.00268076
0.00280186
0.00305497
0.0032976
0.00356117
0.00385163
0.00415855
0.00446927
0.00477053
0.00418614
0.00445914
0.00470865
0.00491772
0.00505982
0.00510002
0.00506378
0.00497506
0.00484571
0.00468225
0.00449065
0.00427823
0.00405446
0.0038258
0.00359853
0.00340461
0.00322721
0.00304929
0.00288036
0.00272217
0.00258716
0.00252218
0.00262393
0.0028993
0.00316999
0.00344222
0.00373455
0.00403541
0.00433238
0.00460658
0.00402508
0.00427413
0.00448676
0.00466029
0.00475572
0.00475294
0.00468376
0.00456761
0.00441629
0.0042386
0.00404245
0.00383661
0.00363458
0.00344441
0.00326769
0.003125
0.00299899
0.00287059
0.00274508
0.00262002
0.0025011
0.00241952
0.0024683
0.00269273
0.00296655
0.00324658
0.00354188
0.00384266
0.00413234
0.00438577
0.00374505
0.00395278
0.0041075
0.00421658
0.00425708
0.00421862
0.00413564
0.00402247
0.00388906
0.00374405
0.00359519
0.00345019
0.00331623
0.00319652
0.0030924
0.00300804
0.00292612
0.00283687
0.00274338
0.00264324
0.00253787
0.00244415
0.00242409
0.00253146
0.00272474
0.0029646
0.00322926
0.00350779
0.00378078
0.00401989
0.00333351
0.00347745
0.00358048
0.00365144
0.00367865
0.00365625
0.00361299
0.00355514
0.00348681
0.00341396
0.0033425
0.00327691
0.00321614
0.00315048
0.00308928
0.00303534
0.00297738
0.00291537
0.0028467
0.00276979
0.00268403
0.00260055
0.00255165
0.00257622
0.00266871
0.00280179
0.00296175
0.00314304
0.00333463
0.00351937
0.00309991
0.00318895
0.00326354
0.00332505
0.00336436
0.00337747
0.00338034
0.00337251
0.00335401
0.00332937
0.00329552
0.00326165
0.00322419
0.00318414
0.00314249
0.00309754
0.00305321
0.00300932
0.00296324
0.00291444
0.00286073
0.00280893
0.00277633
0.0027904
0.00284631
0.00291761
0.00299367
0.00307196
0.00315368
0.00322656
0.00318757
0.00323646
0.00327383
0.00330333
0.00332137
0.00332731
0.00332633
0.00331797
0.00330197
0.00328633
0.00326826
0.00324785
0.00321925
0.00318634
0.00315173
0.00312101
0.00309644
0.00307788
0.00305938
0.00304244
0.00302569
0.00301011
0.00300119
0.00302311
0.00306476
0.00310579
0.0031409
0.00316985
0.00319823
0.00322478
0.000303315
0.000306985
0.000297149
0.000284303
0.000269326
0.000253302
0.000236974
0.000220851
0.000205051
0.000189903
0.000175219
0.000161524
0.000147854
0.000137029
0.000129732
0.00012704
0.000130686
0.000149705
0.000163584
0.000173013
0.000177034
0.000177238
0.000187186
0.000196442
0.000202495
0.000206546
0.000209999
0.000211699
0.000216931
0.000225258
0.00149339
0.0016319
0.00154282
0.00137943
0.00121331
0.00106709
0.000942558
0.000836481
0.000744064
0.000664133
0.000589601
0.000512287
0.000452055
0.000482603
0.000565808
0.000655266
0.000736821
0.000855303
0.00096423
0.00103288
0.00105683
0.0010692
0.0010913
0.00111159
0.00112407
0.0011193
0.001099
0.00104616
0.000965975
0.000920829
0.00253829
0.00283731
0.00276727
0.00255986
0.00230629
0.0020575
0.00183109
0.0016302
0.00145139
0.00129528
0.0011509
0.00100412
0.00089665
0.000959383
0.00110014
0.00123656
0.00136943
0.00156491
0.00175872
0.00189692
0.00196239
0.00200106
0.00204776
0.00208827
0.00210625
0.00209876
0.00206305
0.00196382
0.0018121
0.0017388
0.00338666
0.0037492
0.00372513
0.00352721
0.00324372
0.00293884
0.00264375
0.00237085
0.00212238
0.00190462
0.00170467
0.00150092
0.00136961
0.00145412
0.00162247
0.00177825
0.00193911
0.00218697
0.00244043
0.00263982
0.00275457
0.00282485
0.00289755
0.00295985
0.00298832
0.00297659
0.00292957
0.00281106
0.0026227
0.00253794
0.00411284
0.00447243
0.00448692
0.00431226
0.00402532
0.00369245
0.0033533
0.00302898
0.00272888
0.00246357
0.00222138
0.0019899
0.00185044
0.00194567
0.00211889
0.00227682
0.00244974
0.00273017
0.00302043
0.00327024
0.0034337
0.00353984
0.00363922
0.00372149
0.00377089
0.00376543
0.0037138
0.00358459
0.00338275
0.00329192
0.00473209
0.00506765
0.00510934
0.00495921
0.00468062
0.00433614
0.00396997
0.00361059
0.00327402
0.00297461
0.00270681
0.00246782
0.0023311
0.00242644
0.0025871
0.00273548
0.0029126
0.00320216
0.00351413
0.00380147
0.00400948
0.00415176
0.00427755
0.00437921
0.00444691
0.00446541
0.00443212
0.00429963
0.00408518
0.0039885
0.00526139
0.00557106
0.00562744
0.00549936
0.00523469
0.00488866
0.00450783
0.00412663
0.00376658
0.00344901
0.00316563
0.00293363
0.00280527
0.00289125
0.00302713
0.00315831
0.00333327
0.00361664
0.00393839
0.00425431
0.00449598
0.0046688
0.00481571
0.00493783
0.00502539
0.00506583
0.00505971
0.0049523
0.00473755
0.00463641
0.00571847
0.0059986
0.00606081
0.00595272
0.00570567
0.00536462
0.00497894
0.00458705
0.00421537
0.00388966
0.00360573
0.00338468
0.00326712
0.00333569
0.00343976
0.00354993
0.00372043
0.00399028
0.00431096
0.00464009
0.00491033
0.00510326
0.00526164
0.00540247
0.00551053
0.00557711
0.00559551
0.00552157
0.00532304
0.00521896
0.00611606
0.00638199
0.00644524
0.00634376
0.00610573
0.00577391
0.00539217
0.00499981
0.00462709
0.00430211
0.00402867
0.00381682
0.00371204
0.00375603
0.00382712
0.00391495
0.00407507
0.00432396
0.00463581
0.00498168
0.00526834
0.00547237
0.00563163
0.00577877
0.00590957
0.00600118
0.00604792
0.00601313
0.00584633
0.0057401
0.00649256
0.00674179
0.00679771
0.00669523
0.00646016
0.00613197
0.00575265
0.00537012
0.00500683
0.00469062
0.0044311
0.00423502
0.00413199
0.00415108
0.00419054
0.00425806
0.00439651
0.00461727
0.00491965
0.00528051
0.00558323
0.00579948
0.00596295
0.00610699
0.00623613
0.00634499
0.00641632
0.00642496
0.0063037
0.0062079
0.00683592
0.00706086
0.00711628
0.00701702
0.00678037
0.0064559
0.0060817
0.00570468
0.00535813
0.00505756
0.00481325
0.00463389
0.00452699
0.00452024
0.00453196
0.00458291
0.00468648
0.00487027
0.00515821
0.00550759
0.00581277
0.0060434
0.00620964
0.00635262
0.00648686
0.00661723
0.0067018
0.00674333
0.00669314
0.00662816
0.00710063
0.00731022
0.00737416
0.0072962
0.00707533
0.00675305
0.00638494
0.00601781
0.00568652
0.00540434
0.00517543
0.00500962
0.00490027
0.00486762
0.00485359
0.00488417
0.00494571
0.00508385
0.00534472
0.0056502
0.00595535
0.00620663
0.00638732
0.00653611
0.00667756
0.0068215
0.00693351
0.00699623
0.00698205
0.00696544
0.00730561
0.00751219
0.00758663
0.00752569
0.00733026
0.00703016
0.00666732
0.00631303
0.00599572
0.00573248
0.00551852
0.0053618
0.00524882
0.00519336
0.00515883
0.00515734
0.00517348
0.00525918
0.00546758
0.00573737
0.00603844
0.00630865
0.00650381
0.00666105
0.00681194
0.00697198
0.00710947
0.00720195
0.00723366
0.00725521
0.0074619
0.00767466
0.00776443
0.00772166
0.0075475
0.00727344
0.00693358
0.00659315
0.00629185
0.00604461
0.0058434
0.00569203
0.00557475
0.00549905
0.00544817
0.00540333
0.00536721
0.00539705
0.0055408
0.00577398
0.00606328
0.00634711
0.00655954
0.0067301
0.00689365
0.00707252
0.00723591
0.00736398
0.00743774
0.00750734
0.00757578
0.00780284
0.00791156
0.00788765
0.00773959
0.00748932
0.00717533
0.0068601
0.00657585
0.0063431
0.0061515
0.00600266
0.00587938
0.00578663
0.00571405
0.00561973
0.00552589
0.00549633
0.0055711
0.00576032
0.00603098
0.00632226
0.00655611
0.0067461
0.00692632
0.00712676
0.00731843
0.00748507
0.00759779
0.00770902
0.00765462
0.00790199
0.00803075
0.00802673
0.00790838
0.00768203
0.00739863
0.0071154
0.00684709
0.00662955
0.00644417
0.00629522
0.00616387
0.00605571
0.00594544
0.00580073
0.00564999
0.00555254
0.00555795
0.00569671
0.0059428
0.00623753
0.00649648
0.00671207
0.00691319
0.00713766
0.00736021
0.00756716
0.00771808
0.00786898
0.0077104
0.00797732
0.00812294
0.00814106
0.00805697
0.00785875
0.00761425
0.00735886
0.00710846
0.00690342
0.00672136
0.00656886
0.00642446
0.00629296
0.00613552
0.00593881
0.00573121
0.00556519
0.00550455
0.00558057
0.00580045
0.00609658
0.00638387
0.00663098
0.00685658
0.00710796
0.00736393
0.00761112
0.00780507
0.00799437
0.007746
0.00802946
0.00819462
0.00823847
0.00818737
0.00802345
0.00782238
0.00758476
0.0073585
0.00716175
0.00697892
0.00681578
0.00665161
0.00647903
0.00627271
0.00602221
0.00575819
0.00552999
0.00540081
0.00541596
0.00560238
0.00590193
0.00622112
0.00650443
0.00675881
0.0070411
0.00733265
0.00761914
0.00785743
0.0080935
0.00775838
0.00805093
0.00824092
0.00832379
0.00830601
0.0081879
0.00800646
0.00779962
0.00758986
0.00739481
0.00720396
0.00701831
0.00681797
0.00659716
0.00633877
0.00603464
0.00571762
0.00543375
0.00524403
0.0052037
0.00535124
0.00565283
0.00600953
0.00633244
0.00662359
0.00694029
0.00726701
0.007592
0.00787493
0.00816034
0.00774261
0.0080399
0.00826564
0.00838596
0.00839188
0.00832696
0.00816938
0.00797577
0.00777428
0.00757365
0.00736427
0.00714514
0.00689831
0.00662358
0.00630924
0.00595607
0.00559398
0.00526395
0.00502595
0.00493679
0.00504828
0.00534997
0.00574795
0.00611669
0.00645471
0.00680564
0.00716707
0.00752928
0.00785617
0.00818958
0.00768794
0.00800713
0.00825676
0.00840335
0.0084649
0.00841399
0.00827198
0.00808566
0.00788118
0.00766542
0.00742745
0.0071651
0.00686446
0.00653097
0.00616122
0.00576754
0.00537386
0.00501145
0.00474133
0.00461382
0.00469158
0.00499334
0.0054307
0.00587323
0.00625667
0.00663696
0.0070302
0.00742744
0.00779843
0.00816999
0.007594
0.00793141
0.00818947
0.00834761
0.00845287
0.00842205
0.00828448
0.00809348
0.00787352
0.00763065
0.00735653
0.0070432
0.00668681
0.00629805
0.00587916
0.00546148
0.00505492
0.00467955
0.00439645
0.00424219
0.00428559
0.00458454
0.0050631
0.00556129
0.00600556
0.00644245
0.00687407
0.00729853
0.00770077
0.00809086
0.00743233
0.00776099
0.00802244
0.00823028
0.00834626
0.00831027
0.00816128
0.00795147
0.00770388
0.00742504
0.00711062
0.00675169
0.00634866
0.00592052
0.00547287
0.00505637
0.00466146
0.00429895
0.0040214
0.00385174
0.00385594
0.00412562
0.00465318
0.0052003
0.00569523
0.00617628
0.00665246
0.00711747
0.00755957
0.00796116
0.00715574
0.00749928
0.00778587
0.00798823
0.00808703
0.00802156
0.00784631
0.0076077
0.00732818
0.00701594
0.00667059
0.00628654
0.00586742
0.00543291
0.00499419
0.00461045
0.00425778
0.00393086
0.00368219
0.00351945
0.0034815
0.00366784
0.00418114
0.00476771
0.00529819
0.00581057
0.00631917
0.00681533
0.00728424
0.00768806
0.0067917
0.00712878
0.00738215
0.00755379
0.00760285
0.0074958
0.00729169
0.00703056
0.00673442
0.00641321
0.00606896
0.00569913
0.00531097
0.00492127
0.00454047
0.00421844
0.00392547
0.00367084
0.00347111
0.00332121
0.00324658
0.00332723
0.00371758
0.00425571
0.00478932
0.00531107
0.00583732
0.00635571
0.0068455
0.00725687
0.00622511
0.00653139
0.00673746
0.00685095
0.00684916
0.00671515
0.00650803
0.00625968
0.00598975
0.00570721
0.0054144
0.00511019
0.00480208
0.00449872
0.00420824
0.00396648
0.00375168
0.00356334
0.00340502
0.00327213
0.00317928
0.00317841
0.00338672
0.00376822
0.00421157
0.00468415
0.00518145
0.00568616
0.00617431
0.00659148
0.00542784
0.00568699
0.00583806
0.00591441
0.00590299
0.00579305
0.0056373
0.00545695
0.00526546
0.00506891
0.00486787
0.0046613
0.004453
0.00423633
0.00403842
0.00386889
0.00370634
0.00356092
0.0034355
0.00332563
0.00323864
0.00320565
0.00328901
0.00347475
0.00376261
0.00409709
0.00447603
0.00488335
0.00530153
0.00568945
0.00462481
0.00481832
0.0049438
0.00502409
0.00504856
0.00500889
0.00494029
0.00485342
0.00475512
0.00464967
0.00453475
0.00440885
0.00426643
0.00411259
0.00397542
0.0038312
0.00369946
0.00358428
0.00348888
0.00340851
0.00334606