/*--------------------------------*- C++ -*----------------------------------*\
| =========                 |                                                 |
| \\      /  F ield         | OpenFOAM: The Open Source CFD Toolbox           |
|  \\    /   O peration     | Version:  5.0                                   |
|   \\  /    A nd           | Web:      www.OpenFOAM.org                      |
|    \\/     M anipulation  |                                                 |
\*---------------------------------------------------------------------------*/
FoamFile
{
    version     2.0;
    format      ascii;
    class       volScalarField;
    location    "550/air";
    object      epsilon;
}
// * * * * * * * * * * * * * * * * * * * * * * * * * * * * * * * * * * * * * //

dimensions      [0 2 -3 0 0 0 0];

internalField   nonuniform List<scalar> 
243000
(
7.47573
8.45955
8.72238
8.71836
8.47857
8.07559
7.56475
7.00152
6.42066
5.8712
5.37631
4.976
4.63408
4.29413
3.92707
3.52784
3.09548
2.64812
2.17541
1.69624
1.48966
1.36044
1.48848
1.90574
2.23295
2.49165
2.66609
2.82642
3.08521
3.54556
4.51932
4.90336
4.70713
4.41856
4.06154
3.67848
3.29646
2.93309
2.59627
2.29821
2.03797
1.82079
1.63309
1.47873
1.3501
1.2317
1.10844
0.97959
0.831205
0.690639
0.543286
0.483827
0.800028
1.07291
1.33309
1.56407
1.73446
1.89279
2.12532
2.52864
6.05072
6.48802
6.24258
5.85907
5.38602
4.87814
4.37053
3.88636
3.43774
3.04131
2.69647
2.41012
2.16067
1.95384
1.78093
1.62226
1.45743
1.28297
1.08506
0.913377
0.737002
0.644623
1.06123
1.48745
1.91872
2.27743
2.53686
2.76192
3.06826
3.55759
7.20091
7.61887
7.37429
6.95592
6.42916
5.85534
5.27226
4.70757
4.17918
3.70953
3.3014
2.96574
2.67127
2.42011
2.20349
2.00124
1.79017
1.56449
1.32029
1.12227
0.934197
0.826497
1.26079
1.84971
2.45052
2.93107
3.27605
3.56303
3.92597
4.46798
8.06263
8.41521
8.18884
7.77126
7.23277
6.63503
6.01421
5.40113
4.81928
4.29802
3.84596
3.47748
3.15145
2.86373
2.60607
2.36012
2.10179
1.8234
1.53991
1.32085
1.13215
1.02512
1.42629
2.15093
2.89495
3.49281
3.92167
4.27089
4.68273
5.25546
8.69495
8.95998
8.75724
8.36167
7.83922
7.24611
6.61472
5.97752
5.36308
4.80826
4.32829
3.94009
3.59296
3.27564
2.98078
2.6928
2.38888
2.0595
1.74524
1.51034
1.32705
1.23053
1.57512
2.38808
3.22882
3.94184
4.45685
4.87184
5.32847
5.92029
9.11348
9.30973
9.13338
8.77277
8.28416
7.71469
7.09199
6.44898
5.81846
5.2447
4.74972
4.35178
3.99129
3.65073
3.3227
2.99598
2.64925
2.27355
1.93677
1.69027
1.51492
1.4347
1.71938
2.57202
3.45367
4.2649
4.87325
5.35911
5.85805
6.46302
9.34758
9.50589
9.35754
9.03931
8.59616
8.06282
7.46247
6.82729
6.19391
5.61304
5.11304
4.71251
4.34442
3.98602
3.6294
3.2681
2.88256
2.46688
2.11526
1.86002
1.69252
1.63103
1.87211
2.70082
3.58406
4.47397
5.1642
5.728
6.26854
6.88338
9.43585
9.58055
9.46219
9.1898
8.7959
8.30712
7.73973
7.1229
6.49733
5.91905
5.42163
5.02346
4.65186
4.28029
3.8998
3.50877
3.08962
2.64497
2.28289
2.01945
1.85761
1.81437
2.03145
2.79381
3.67527
4.57964
5.34789
5.9801
6.56122
7.18699
9.4118
9.56266
9.48383
9.25549
8.91062
8.46618
7.93335
7.34363
6.73544
6.16787
5.67901
5.28645
4.91456
4.53325
4.13401
3.71866
3.27123
2.81313
2.44066
2.16836
2.00901
1.98137
2.18679
2.86829
3.7358
4.6026
5.43243
6.13048
6.75121
7.38963
9.30601
9.46911
9.43312
9.25775
8.95809
8.55758
8.06142
7.49915
6.91369
6.36368
5.8882
5.50388
5.13362
4.74598
4.33318
3.89918
3.42859
2.967
2.58755
2.30653
2.14627
2.13028
2.33029
2.93116
3.77335
4.57433
5.43801
6.18898
6.84621
7.49927
9.1257
9.31024
9.32
9.19948
8.9532
8.59346
8.13358
7.60095
7.0392
6.51134
6.05237
5.67794
5.31075
4.92042
4.49918
4.05213
3.5637
3.10614
2.72317
2.43394
2.26948
2.25976
2.45563
2.98358
3.79149
4.54025
5.3641
6.1713
6.86286
7.5301
8.88363
9.09839
9.15566
9.08947
8.89666
8.58364
8.1589
7.65602
7.12041
6.61424
6.17491
5.81121
5.44862
5.05923
4.6344
4.17966
3.6804
3.23227
2.84825
2.55121
2.37879
2.36836
2.5577
3.02884
3.78659
4.49378
5.24444
6.07501
6.8029
7.4897
8.58909
8.8428
8.94909
8.93722
8.79364
8.5277
8.14312
7.67166
7.16271
6.67984
6.25891
5.90684
5.5506
5.16551
4.74159
4.28376
3.78802
3.34888
2.96434
2.65919
2.47444
2.45415
2.63432
3.06189
3.76001
4.43658
5.13344
5.9184
6.67753
7.38347
8.25179
8.55112
8.70774
8.74798
8.65277
8.43007
8.08612
7.65068
7.17197
6.71239
6.30909
5.96782
5.62027
5.2426
4.8237
4.36664
3.88757
3.45715
3.0726
2.75884
2.557
2.51772
2.68489
3.07925
3.71721
4.36845
5.02145
5.73231
6.4997
7.22213
7.88094
8.22987
8.43691
8.52608
8.47803
8.29619
7.99113
7.59348
7.14905
6.71694
6.33073
5.99963
5.66095
5.29382
4.88354
4.43117
3.97648
3.55743
3.17407
2.85116
2.62835
2.56304
2.71181
3.08101
3.66134
4.2902
4.90754
5.56425
6.28352
7.0152
7.48919
7.88556
8.14086
8.27559
8.27282
8.13024
7.86172
7.5027
7.09523
6.69316
6.32854
6.00839
5.67869
5.32255
4.92365
4.48235
4.05635
3.65093
3.2701
2.9378
2.69179
2.59489
2.7196
3.06286
3.594
4.20293
4.79065
5.40457
6.05953
6.77192
7.12435
7.52608
7.82466
8.00107
8.03966
7.93535
7.70349
7.38161
7.01226
6.64212
6.3007
5.99495
5.67804
5.33373
4.94722
4.53234
4.13144
3.73993
3.36252
3.02071
2.75059
2.61795
2.70826
3.02478
3.51632
4.1081
4.67057
5.25
5.8547
6.50152
6.79187
7.19134
7.50087
7.70874
7.78333
7.71574
7.52021
7.23609
6.90314
6.5645
6.24723
5.95796
5.65639
5.32852
4.95888
4.58036
4.20385
3.82648
3.45318
3.10231
2.80815
2.63672
2.68215
2.9686
3.42973
4.00745
4.54759
5.09774
5.65906
6.22544
6.48492
6.88308
7.20166
7.41534
7.51082
7.47598
7.31516
7.0681
6.77155
6.46514
6.17273
5.90133
5.61685
5.30774
4.97378
4.62886
4.27579
3.91268
3.54402
3.18513
2.86791
2.65622
2.64755
2.89772
3.33629
3.90317
4.42263
4.94679
5.47115
5.97957
6.19788
6.5975
6.92276
7.1444
7.24845
7.23136
7.09768
6.88499
6.62532
6.35256
6.08636
5.83405
5.57359
5.29489
4.99584
4.6805
4.34952
4.00063
3.63724
3.2718
2.93313
2.6807
2.61282
2.81752
3.23928
3.79806
4.29771
4.79771
5.28999
5.75511
5.92826
6.33094
6.66086
6.89134
7.00456
7.00624
6.89903
6.71921
6.49507
6.25542
6.01637
5.78504
5.54714
5.29702
5.02679
4.73771
4.42752
4.09289
3.73565
3.36538
3.00733
2.71544
2.58709
2.73579
3.14378
3.69545
4.17563
4.65231
5.11571
5.54711
5.67489
6.08028
6.41364
6.65189
6.77737
6.79746
6.7167
6.56864
6.37891
6.17192
5.96071
5.75162
5.53836
5.31243
5.06845
4.80367
4.51364
4.19364
3.84371
3.47062
3.09548
2.76657
2.57859
2.66301
3.05801
3.60089
4.06163
4.51478
4.9507
5.35388
5.43741
5.84349
6.17929
6.42577
6.5651
6.60275
6.54838
6.43155
6.27581
6.10141
5.91862
5.73485
5.5465
5.34494
5.12622
4.88559
4.61645
4.31234
3.97126
3.5971
3.20676
2.84321
2.5955
2.61173
2.99381
3.52211
3.96301
4.39181
4.80019
5.17747
5.21812
5.62299
5.96
6.21324
6.36677
6.42089
6.39359
6.30836
6.18699
6.04642
5.89538
5.74058
5.57918
5.40631
5.21622
5.00297
4.75775
4.47186
4.14113
3.76652
3.36108
2.96248
2.65455
2.60374
2.9702
3.46916
3.88754
4.28907
4.66833
5.01989
5.02621
5.42559
5.75978
6.01705
6.18535
6.25562
6.25648
6.20504
6.12193
6.02092
5.90975
5.79273
5.66996
5.53675
5.38585
5.20838
4.99247
4.72724
4.40634
4.02824
3.60286
3.16373
2.78937
2.66119
3.00909
3.46651
3.85219
4.21828
4.56506
4.88908
4.88648
5.27455
5.60205
5.86029
6.04327
6.13614
6.17256
6.16703
6.13733
6.0941
6.04448
5.99178
5.93406
5.86399
5.77226
5.64368
5.46062
5.21292
4.89301
4.49866
4.03806
3.54319
3.09083
2.87512
3.16144
3.5529
3.89808
4.2219
4.52439
4.81107
4.89625
5.27265
5.60056
5.8764
6.09924
6.24705
6.35549
6.43817
6.50689
6.57298
6.64312
6.71632
6.7805
6.81555
6.80449
6.72868
6.56611
6.31011
5.95609
5.50751
4.97438
4.39288
3.85169
3.52874
3.68207
3.95741
4.21509
4.45507
4.68203
4.9034
5.95724
6.35798
6.74157
7.10063
7.43028
7.73135
8.02399
8.29636
8.555
8.83716
9.14341
9.45296
9.71194
9.88279
9.94021
9.87283
9.66602
9.32879
8.86134
8.28855
7.62927
6.93116
6.31868
5.87869
5.79721
5.86645
5.93923
5.99314
6.04427
6.11455
15.1468
15.5485
15.9571
16.3508
16.6041
16.9151
17.3168
17.5955
17.8172
18.1975
18.6781
19.1369
19.3805
19.4204
19.2743
19.0048
18.6092
18.1519
17.5838
17.0242
16.5006
16.0377
15.7523
15.7288
15.7853
15.8484
15.845
15.7648
15.6283
15.4863
13.646
16.4158
17.3932
17.5448
17.0656
16.1476
14.9425
13.5818
12.1427
10.7466
9.43209
8.29181
7.2014
6.17587
5.2018
4.2847
3.42315
2.97293
2.75966
2.84263
2.1769
2.0898
2.77701
4.0987
4.93966
4.98681
4.83348
4.50247
4.65491
5.2466
8.86323
9.66811
10.0918
10.1904
9.97655
9.50471
8.84388
8.06704
7.22425
6.37138
5.56577
4.85758
4.19173
3.63665
3.19893
2.85858
2.56546
2.50072
2.39289
2.47821
1.98883
1.84194
2.61204
3.767
4.48926
4.66537
4.63157
4.36666
4.39976
4.63245
8.31081
8.65999
8.78685
8.76401
8.58257
8.23976
7.75198
7.15585
6.48839
5.79452
5.12412
4.5342
3.95688
3.47379
3.11346
2.86144
2.6608
2.62646
2.4992
2.62552
2.36054
2.30272
3.11926
4.21024
4.93111
5.15128
5.14523
4.89364
4.89044
5.04236
8.20379
8.30572
8.27036
8.17151
8.00241
7.7324
7.34647
6.85847
6.28943
5.69097
5.11923
4.59377
4.05552
3.59211
3.24867
3.01622
2.8365
2.77473
2.61452
2.7658
2.70296
2.79554
3.60327
4.61302
5.31676
5.56428
5.58277
5.36095
5.33367
5.46801
8.16137
8.07279
7.93489
7.79592
7.64078
7.42489
7.11334
6.70377
6.21559
5.69486
5.18376
4.71131
4.2048
3.75136
3.40962
3.177
2.99683
2.89642
2.71706
2.87947
2.98255
3.21091
3.94638
4.87976
5.5639
5.84179
5.8912
5.71642
5.67876
5.81201
8.07745
7.84953
7.6485
7.49235
7.35463
7.1827
6.92916
6.58161
6.16011
5.70107
5.2425
4.8146
4.33694
3.89352
3.55122
3.31312
3.12712
2.99913
2.8303
2.9975
3.19818
3.50444
4.15485
5.02706
5.68299
5.99223
6.07717
5.95807
5.92264
6.05411
7.93996
7.61337
7.37587
7.21772
7.10017
6.96523
6.7581
6.46119
6.09338
5.68885
5.27743
4.8854
4.43591
4.00493
3.66351
3.41996
3.22994
3.0986
2.9348
3.0974
3.35425
3.69068
4.2856
5.08361
5.71416
6.04251
6.15832
6.09574
6.06825
6.19513
7.74962
7.36058
7.10757
6.95776
6.86176
6.75817
6.58837
6.33277
6.00636
5.65032
5.28656
4.92361
4.49949
4.0839
3.74614
3.50006
3.31191
3.18699
3.02616
3.17568
3.45728
3.80429
4.35387
5.06377
5.6598
5.99882
6.15128
6.14299
6.12468
6.24739
7.50876
7.09411
6.84287
6.70807
6.63338
6.5561
6.41622
6.19401
5.90332
5.58523
5.26669
4.93505
4.53097
4.13288
3.80204
3.55799
3.3825
3.26318
3.10595
3.23524
3.52185
3.87023
4.37407
4.98777
5.52745
5.87487
6.06282
6.10849
6.10399
6.21775
7.22809
6.82019
6.58377
6.46792
6.41316
6.35736
6.24099
6.04588
5.78625
5.5008
5.21669
4.91878
4.53937
4.15563
3.83549
3.59866
3.44385
3.32898
3.18035
3.28495
3.56119
3.90149
4.34787
4.88475
5.35938
5.70127
5.9108
6.00742
6.01907
6.12499
6.92383
6.54405
6.33165
6.23721
6.2005
6.16187
6.06386
5.89051
5.65745
5.40187
5.14668
4.87335
4.52386
4.16066
3.85161
3.62721
3.49616
3.38846
3.24935
3.33118
3.583
3.90518
4.29421
4.77076
5.18925
5.49737
5.71512
5.84897
5.88174
5.98018
6.60523
6.26908
6.08697
6.01517
5.99507
5.96999
5.88632
5.73075
5.52054
5.29172
5.06185
4.81039
4.48579
4.14688
3.85538
3.64925
3.54231
3.44532
3.31621
3.37392
3.59462
3.88831
4.22644
4.64417
5.02745
5.28918
5.49209
5.64813
5.70282
5.79623
6.28126
5.99891
5.85057
5.80122
5.79616
5.78217
5.71003
5.5695
5.37945
5.17411
4.96683
4.735
4.43496
4.12068
3.85179
3.67244
3.58654
3.50318
3.38441
3.41856
3.60346
3.85982
4.15269
4.51404
4.85935
5.09853
5.2615
5.42006
5.49115
5.58489
5.95974
5.73692
5.62361
5.59601
5.60395
5.59939
5.53718
5.40995
5.2382
5.05357
4.86631
4.65265
4.3771
4.08922
3.84706
3.69934
3.63338
3.56569
3.45771
3.46994
3.61522
3.82522
4.0782
4.38776
4.69059
4.91351
5.0536
5.18103
5.26118
5.35676
5.64877
5.48613
5.40753
5.4009
5.41977
5.42357
5.37042
5.25572
5.10117
4.93523
4.76577
4.56954
4.31877
4.05942
3.84903
3.73393
3.68797
3.63707
3.54018
3.53262
3.63304
3.79047
4.00715
4.27074
4.5298
4.73295
4.86095
4.94952
5.02499
5.1211
5.35556
5.24962
5.20457
5.21703
5.24589
5.25704
5.21293
5.11088
4.97333
4.82504
4.67175
4.493
4.26777
4.0394
3.86779
3.78245
3.75646
3.72236
3.63674
3.61037
3.6583
3.7608
3.94285
4.16648
4.38291
4.56347
4.67745
4.74412
4.79452
4.88587
5.08949
5.03164
5.01777
5.04634
5.08492
5.10321
5.06899
4.98064
4.86065
4.72983
4.59222
4.43214
4.23343
4.0421
3.90999
3.85283
3.84655
3.82822
3.75388
3.70778
3.69549
3.74205
3.88731
4.07605
4.25335
4.40985
4.50832
4.56442
4.58805
4.65795
4.86652
4.84052
4.85128
4.89322
4.9412
4.96722
4.94479
4.87217
4.77071
4.65801
4.53753
4.3988
4.23397
4.08009
3.98581
3.95655
3.96827
3.96432
3.90106
3.83108
3.75585
3.74485
3.84265
3.99934
4.14285
4.27538
4.35805
4.40441
4.41273
4.44665
4.68481
4.68891
4.71405
4.76591
4.82264
4.85785
4.84992
4.79552
4.71355
4.62372
4.52681
4.41103
4.2814
4.16801
4.11022
4.10866
4.13703
4.14564
4.09247
3.99146
3.85405
3.77155
3.81264
3.93642
4.05222
4.16258
4.22999
4.26639
4.26608
4.26834
4.54317
4.57423
4.61774
4.67685
4.74237
4.78956
4.79834
4.76573
4.71326
4.64736
4.57575
4.48978
4.39875
4.3263
4.30644
4.33305
4.37782
4.39708
4.34839
4.21493
4.01154
3.84038
3.8101
3.88979
3.98256
4.07418
4.12741
4.15482
4.14849
4.13492
4.44017
4.49772
4.56536
4.63895
4.71667
4.77949
4.81012
4.80438
4.78317
4.7504
4.71129
4.66269
4.61654
4.58985
4.61349
4.67145
4.73408
4.7625
4.71026
4.54132
4.26262
3.98048
3.84525
3.86748
3.93682
4.01354
4.05511
4.07565
4.06629
4.04688
4.37706
4.46362
4.55651
4.65819
4.7636
4.8514
4.91077
4.9398
4.95869
4.96859
4.97413
4.97727
4.9892
5.02163
5.10257
5.20197
5.28755
5.32403
5.25844
5.04171
4.66821
4.24162
3.95358
3.88893
3.92946
3.98892
4.0213
4.03763
4.02787
4.00823
4.35478
4.47836
4.61748
4.75984
4.90323
5.02941
5.13215
5.21014
5.28571
5.3594
5.43437
5.52011
5.62231
5.74623
5.91616
6.08211
6.20366
6.24736
6.14985
5.85497
5.34572
4.71805
4.20446
3.9913
3.98341
4.02446
4.04717
4.05858
4.04744
4.03141
4.40198
4.57963
4.77668
4.9761
5.1811
5.36696
5.54031
5.70113
5.87731
6.06058
6.25295
6.47645
6.74074
7.02994
7.36253
7.65183
7.83826
7.88652
7.71503
7.26912
6.53496
5.60252
4.73541
4.2671
4.1644
4.17286
4.17617
4.17408
4.15423
4.14681
4.5791
4.8303
5.10795
5.39324
5.70376
6.00027
6.31854
6.64416
7.00386
7.39482
7.81681
8.28589
8.86201
9.48178
10.1426
10.675
10.9779
11.0074
10.6575
9.89059
8.73813
7.31057
5.85908
4.92908
4.63819
4.56379
4.51653
4.47359
4.43278
4.42352
5.05325
5.4074
5.82095
6.26241
6.78958
7.31355
7.89166
8.53587
9.26149
10.0713
10.9895
12.0234
13.2011
14.4995
15.8124
16.779
17.2287
17.1246
16.3474
14.9144
12.9635
10.7063
8.2887
6.55622
5.85223
5.56426
5.37508
5.22086
5.10284
5.05264
6.3598
6.90027
7.60938
8.38987
9.30421
10.3086
11.4541
12.7711
14.2587
15.9292
17.8489
20.0289
22.4021
24.8552
27.1575
28.5767
28.953
28.3029
26.5872
23.9652
20.7382
17.2937
13.5946
10.699
9.14796
8.32416
7.72891
7.23774
6.86095
6.64371
10.3828
11.3427
12.6401
14.1361
15.865
17.8755
20.1703
22.7688
25.6337
28.7685
32.2651
36.0537
39.8944
43.304
45.7173
46.3792
45.3709
43.0191
39.837
36.1399
32.1419
28.0184
23.9281
20.4351
17.9132
16.1566
14.6199
13.2075
12.0342
11.2543
22.8409
24.5988
26.896
29.5263
32.3996
35.7025
39.3209
43.1737
47.1783
51.256
55.118
58.5605
61.1644
61.8017
60.627
57.6733
54.0944
50.2502
46.4624
42.9196
39.7576
37.0755
35.3755
34.851
34.1764
33.0006
31.2964
29.0091
26.5746
24.6147
44.5423
47.6177
50.5828
53.418
55.8828
58.2385
60.3802
62.1769
63.6717
64.7685
64.6475
63.4188
61.2619
58.4341
54.3271
49.6724
45.544
41.9538
38.9488
36.6517
35.133
34.426
34.8921
36.6104
38.8357
40.8174
42.5861
44.1288
45.1878
45.5551
20.136
24.2359
25.483
25.7509
25.1132
23.8007
22.018
19.9434
17.6686
15.3468
13.0058
10.8372
8.71815
7.21995
6.29725
6.0412
6.68674
9.91495
12.3027
13.6633
13.63
12.8987
13.4368
13.4158
12.8095
11.8164
10.75
9.49101
8.75263
8.35052
11.7452
12.4571
12.7754
12.9326
12.784
12.324
11.6055
10.6958
9.64971
8.52104
7.35322
6.20894
5.13633
4.57173
4.42466
4.64237
5.25262
7.24471
8.75207
9.66838
9.92695
9.73162
9.76679
9.51817
9.13538
8.63388
8.10139
7.44928
7.11445
7.01894
10.8692
10.9117
10.8218
10.713
10.5249
10.2072
9.73555
9.11549
8.37195
7.53811
6.64234
5.72875
4.8692
4.46016
4.41224
4.6501
5.16096
6.76297
8.11614
8.99318
9.36173
9.41213
9.42703
9.24393
8.97135
8.55782
8.11141
7.57879
7.33693
7.3172
10.6416
10.3456
10.0572
9.8265
9.61806
9.36932
9.02372
8.55472
7.96818
7.2817
6.5258
5.75618
4.98694
4.62385
4.57652
4.7638
5.17924
6.49598
7.74189
8.6148
9.05142
9.23773
9.31866
9.22219
9.02829
8.70073
8.32198
7.83884
7.60488
7.6156
10.4287
9.93515
9.54568
9.26607
9.06345
8.86861
8.60844
8.23978
7.75785
7.18008
6.53662
5.85065
5.15815
4.81296
4.73833
4.85513
5.16906
6.24177
7.36404
8.22515
8.71029
8.98708
9.1623
9.15715
9.02173
8.76309
8.45177
8.03362
7.7921
7.8033
10.1408
9.53606
9.10178
8.8143
8.63362
8.48571
8.28913
7.99339
7.58992
7.10054
6.54672
5.93178
5.30937
4.9739
4.86374
4.90742
5.11993
5.97636
6.95117
7.77923
8.30736
8.64937
8.91805
8.99927
8.93306
8.72245
8.45068
8.10914
7.88696
7.87209
9.78653
9.12415
8.68044
8.40906
8.25852
8.15162
8.00385
7.76349
7.42208
7.00015
6.53176
5.98267
5.42481
5.09621
4.94844
4.92467
5.05661
5.71994
6.55664
7.32781
7.87009
8.25842
8.58581
8.75154
8.7471
8.60157
8.37141
8.07809
7.87258
7.83428
9.37009
8.69907
8.27213
8.03053
7.91267
7.84043
7.73003
7.53244
7.24091
6.87954
6.47998
6.00284
5.50264
5.17939
4.99634
4.91606
5.00279
5.51359
6.21982
6.92546
7.45376
7.84946
8.19916
8.42858
8.47957
8.39326
8.21786
7.97745
7.78194
7.71116
8.91518
8.27051
7.87783
7.67197
7.58548
7.54142
7.4593
7.29502
7.04493
6.73808
6.39668
5.99703
5.54365
5.22628
5.01352
4.8923
4.95799
5.34268
5.92778
6.55947
7.06648
7.4577
7.79841
8.05029
8.15015
8.11445
7.98917
7.80196
7.61627
7.52335
8.44557
7.8485
7.49952
7.33069
7.27236
7.25034
7.18924
7.05133
6.8367
6.57859
6.29345
5.95717
5.55698
5.24157
5.0073
4.86575
4.91522
5.19943
5.67382
6.22899
6.70691
7.08294
7.406
7.65257
7.7809
7.78446
7.70198
7.56132
7.39028
7.28374
7.97842
7.43985
7.13827
7.00535
6.97138
6.96607
6.92061
6.80393
6.6206
6.40647
6.17463
5.8932
5.54275
5.23215
4.98602
4.8493
4.87454
5.07834
5.45382
5.93298
6.37472
6.72824
7.02532
7.25788
7.39016
7.42183
7.37301
7.27062
7.11758
7.00573
7.5221
7.04829
6.79442
6.69529
6.68228
6.68908
6.65561
6.55682
6.40186
6.22771
6.0449
5.81286
5.50168
5.20238
4.95914
4.83834
4.83983
4.97845
5.26858
5.6726
6.07177
6.39852
6.66442
6.87498
7.00209
7.04288
7.0185
6.9455
6.81085
6.69998
7.08256
6.67682
6.46896
6.4009
6.40575
6.42126
6.39762
6.3148
6.18616
6.04837
5.90915
5.72151
5.44525
5.16274
4.93879
4.83248
4.8171
4.9043
5.12039
5.45124
5.80326
6.09943
6.33273
6.51406
6.62732
6.66943
6.65381
6.60103
6.48392
6.37863
6.66461
6.328
6.16374
6.12435
6.14308
6.16564
6.15098
6.08324
5.97958
5.87485
5.77401
5.62519
5.38219
5.1245
4.93873
4.8392
4.81285
4.86074
5.01331
5.27288
5.57347
5.8355
6.03665
6.18451
6.27553
6.31096
6.29599
6.25172
6.14957
6.05302
6.27301
6.00399
5.8807
5.86734
5.8971
5.92582
5.92042
5.86799
5.78873
5.71432
5.64747
5.53262
5.32445
5.10237
4.9598
4.86725
4.8348
4.85376
4.95224
5.1426
5.38643
5.61012
5.77914
5.89176
5.95462
5.97648
5.95651
5.91168
5.8194
5.73272
5.9128
5.70728
5.62252
5.63183
5.6712
5.70637
5.71124
5.67587
5.62133
5.57567
5.53975
5.4563
5.28823
5.11701
5.00896
4.92729
4.89296
4.89205
4.94582
5.06736
5.2469
5.42648
5.56224
5.63946
5.67079
5.67409
5.64399
5.5932
5.50456
5.42645
5.59055
5.44175
5.39348
5.42068
5.47017
5.51368
5.53072
5.51547
5.48749
5.47065
5.46482
5.41432
5.29707
5.17939
5.10188
5.03471
5.0031
4.98657
5.00354
5.06015
5.16323
5.28915
5.38771
5.42974
5.42899
5.41007
5.36528
5.30515
5.21774
5.14322
5.31172
5.21513
5.19969
5.24094
5.30204
5.35704
5.39037
5.39863
5.40138
5.41588
5.44298
5.43313
5.37388
5.30266
5.25988
5.21272
5.18858
5.15958
5.14138
5.13295
5.15152
5.20588
5.2583
5.26516
5.233
5.18883
5.12665
5.05529
4.96678
4.89409
5.07963
5.03043
5.04543
5.10384
5.18016
5.2509
5.30714
5.3431
5.38281
5.43716
5.50568
5.54344
5.53774
5.51635
5.51717
5.4978
5.48665
5.44807
5.39295
5.31046
5.23162
5.1924
5.18066
5.15042
5.08542
5.01485
4.93453
4.85083
4.75911
4.68757
4.89905
4.89346
4.936
5.01631
5.1161
5.20889
5.29406
5.37097
5.45502
5.55797
5.67701
5.77077
5.82884
5.8684
5.92989
5.95001
5.95923
5.9131
5.81429
5.6434
5.44074
5.27417
5.16971
5.09214
4.99061
4.89439
4.79585
4.69927
4.60251
4.5315
4.77715
4.80814
4.88091
4.986
5.11475
5.25414
5.38133
5.50662
5.64904
5.81679
6.00415
6.17222
6.31437
6.43916
6.58975
6.67215
6.71408
6.66238
6.50663
6.22051
5.85013
5.49962
5.25802
5.09249
4.95559
4.83755
4.72126
4.61089
4.50643
4.43481
4.7193
4.78344
4.894
5.04938
5.22952
5.41745
5.60342
5.79747
6.02226
6.28215
6.56946
6.84684
7.11263
7.368
7.65991
7.84772
7.94646
7.89352
7.65851
7.20951
6.59638
5.9655
5.49954
5.21715
5.01957
4.85502
4.71321
4.59007
4.47992
4.40788
4.74444
4.85812
5.02823
5.24417
5.49391
5.75761
6.03191
6.32983
6.67877
7.07929
7.52309
7.97484
8.43997
8.91188
9.44272
9.81668
10.0167
9.97583
9.62591
8.93305
7.94908
6.86666
6.01778
5.5299
5.23945
5.02296
4.84363
4.69347
4.56506
4.48622
4.90871
5.08892
5.34325
5.65045
6.00511
6.39135
6.80718
7.27281
7.82133
8.45068
9.15474
9.90164
10.7083
11.5575
12.5065
13.2064
13.5838
13.5809
13.0118
11.8638
10.319
8.59956
7.07294
6.22159
5.75565
5.43908
5.18945
4.98776
4.82433
4.73064
5.33361
5.61114
5.99378
6.44718
6.97312
7.56824
8.22579
8.97952
9.86783
10.8885
12.0431
13.305
14.7085
16.2149
17.8682
19.0867
19.7249
19.455
18.352
16.5326
14.2428
11.7158
9.23896
7.72271
6.90389
6.37459
5.97299
5.65721
5.41397
5.27679
6.33307
6.76239
7.36015
8.06508
8.89169
9.86201
10.952
12.2205
13.7044
15.4045
17.3331
19.4688
21.8574
24.3923
27.017
28.6153
28.8014
27.7905
25.8786
23.2437
20.1682
16.8621
13.5238
11.0197
9.50616
8.51296
7.7603
7.17514
6.73333
6.47129
8.79701
9.47898
10.459
11.619
12.984
14.6344
16.4967
18.6603
21.1366
23.9224
27.0303
30.4196
34.102
37.7173
40.4798
40.9835
39.9122
37.6896
34.8104
31.4597
27.894
24.255
20.7785
17.9633
15.4191
13.5562
12.0436
10.8308
9.89059
9.28035
15.2951
16.3784
17.9852
19.8909
22.1181
24.8276
27.8468
31.2601
35.0039
39.043
43.3169
47.6866
51.8715
54.3692
54.8506
52.9727
49.9222
46.2639
42.5779
38.9865
35.6695
32.6837
30.3859
28.6369
26.8459
24.6037
22.1168
19.8366
17.8774
16.4139
31.1627
32.7329
34.9492
37.5327
40.4607
43.9464
47.7217
51.7619
55.9053
60.0243
63.7346
66.5301
67.258
65.9797
62.8864
57.9128
52.8869
48.2274
44.3465
41.268
39.0521
37.7328
37.6955
38.4637
39.2027
39.5039
39.0996
37.5398
35.3438
33.0727
50.5852
53.6831
56.442
58.7687
61.0182
63.397
65.7654
67.9997
69.9377
71.2013
71.0956
69.2554
65.9568
61.4081
55.7222
49.2357
43.7021
39.2711
35.9931
33.8402
32.7983
32.8586
34.2636
36.7392
39.6611
42.5267
45.2748
47.8363
49.9769
51.6822
26.7177
32.2366
33.4505
33.726
32.9565
31.3158
29.0189
26.279
23.1873
19.9152
16.447
13.0845
9.92186
8.93412
10.0335
13.9701
18.8408
25.4376
29.118
30.8495
30.5367
29.2325
27.598
25.6797
23.5179
21.138
18.7539
16.0721
13.9843
12.1814
14.7098
15.5113
15.6058
15.7168
15.5855
15.1229
14.3442
13.3088
12.0716
10.6727
9.11912
7.47399
6.05874
6.08175
7.20601
9.49476
12.29
15.6939
17.5098
18.3548
18.2503
17.6291
16.7405
15.7204
14.6337
13.4793
12.3526
11.1311
10.342
9.71229
13.398
13.2471
12.9215
12.7057
12.4875
12.1782
11.7144
11.07
10.2531
9.27512
8.12721
6.84106
5.79075
5.96535
6.96486
8.72799
10.9341
13.5604
15.0688
15.805
15.8179
15.4359
14.8405
14.1213
13.3283
12.4542
11.6116
10.6841
10.1278
9.7388
12.9485
12.3661
11.8517
11.5051
11.2564
11.0219
10.7096
10.2545
9.63908
8.85928
7.89771
6.82016
5.94132
6.14383
7.00081
8.41476
10.226
12.3814
13.7634
14.4923
14.611
14.3934
13.9944
13.466
12.8458
12.1249
11.4012
10.5996
10.1126
9.81288
12.5463
11.7388
11.1413
10.7547
10.5182
10.3448
10.1294
9.79137
9.30156
8.65002
7.83716
6.89112
6.15514
6.35332
7.06663
8.18939
9.66715
11.4521
12.7305
13.4665
13.6769
13.5853
13.3371
12.9583
12.4736
11.869
11.2282
10.5233
10.065
9.79237
12.0722
11.1551
10.5396
10.1632
9.9616
9.84274
9.6961
9.43719
9.0346
8.48074
7.79104
6.96212
6.3591
6.54039
7.11364
7.98017
9.16239
10.6286
11.7945
12.5294
12.8128
12.8186
12.688
12.4316
12.0628
11.5674
11.0072
10.3869
9.94738
9.69806
11.5143
10.5778
9.98558
9.64746
9.48945
9.41713
9.32032
9.1177
8.78044
8.30861
7.7253
7.01797
6.53916
6.69482
7.13193
7.77423
8.69643
9.8795
10.9173
11.6362
11.9705
12.0528
12.0102
11.8525
11.582
11.1868
10.7177
10.1783
9.756
9.48993
10.9008
10.0072
9.46521
9.17917
9.06475
9.02933
8.96814
8.80707
8.52229
8.12463
7.63591
7.05948
6.69437
6.81593
7.12558
7.57529
8.27642
9.21687
10.1235
10.7941
11.1475
11.2853
11.3078
11.227
11.0381
10.7315
10.3458
9.89224
9.48597
9.20235
10.2742
9.45441
8.97669
8.7455
8.6704
8.66257
8.62658
8.49756
8.2582
7.93097
7.53512
7.09015
6.82381
6.90521
7.09918
7.39294
7.91612
8.64662
9.41719
10.0285
10.3863
10.5405
10.5969
10.5738
10.4503
10.2196
9.9089
9.53289
9.15264
8.86112
9.65572
8.92672
8.51839
8.33928
8.29812
8.30969
8.29207
8.18935
7.99207
7.73303
7.43273
7.11222
6.92739
6.96539
7.05974
7.24134
7.60583
8.15384
8.78828
9.33201
9.68152
9.8424
9.91358
9.91454
9.84116
9.67191
9.42527
9.11744
8.77113
8.48638
9.06937
8.42816
8.08802
7.95657
7.94434
7.9694
7.96577
7.88633
7.73018
7.53827
7.33315
7.12673
7.00581
7.00084
7.0163
7.10847
7.34158
7.73105
8.23502
8.70573
9.03568
9.19588
9.26895
9.28088
9.23101
9.10952
8.915
8.66395
8.35477
8.08914
8.51292
7.96033
7.68456
7.59683
7.60823
7.64363
7.65103
7.59406
7.47942
7.35346
7.23974
7.13508
7.0611
7.01862
6.9818
6.99738
7.12347
7.37586
7.75848
8.15302
8.4543
8.60706
8.6728
8.68396
8.64472
8.54997
8.39603
8.19072
7.91933
7.67969
7.98893
7.52506
7.30893
7.26122
7.2909
7.33526
7.3525
7.31869
7.24655
7.18466
7.155
7.13864
7.09854
7.02815
6.96624
6.91322
6.95319
7.0902
7.36171
7.67808
7.9431
8.08223
8.134
8.13486
8.0945
8.01312
7.88426
7.71473
7.48004
7.26982
7.50019
7.12353
6.96275
6.95049
6.99487
7.04781
7.07558
7.06669
7.03817
7.03793
7.08285
7.13901
7.12669
7.04346
6.96582
6.86272
6.83572
6.87838
7.04953
7.28591
7.50726
7.62639
7.65936
7.64298
7.59151
7.51132
7.39431
7.25087
7.04989
6.87003
7.04933
6.75663
6.64806
6.66531
6.72296
6.78548
6.82671
6.84473
6.86117
6.91699
7.02878
7.14484
7.15972
7.08631
6.99435
6.85674
6.77989
6.74833
6.82909
6.98326
7.15209
7.24329
7.25361
7.21466
7.14446
7.05567
6.94135
6.81222
6.63964
6.4891
6.63985
6.4261
6.36706
6.40764
6.47906
6.55359
6.61232
6.66063
6.72103
6.82951
7.00413
7.17101
7.21834
7.16366
7.06886
6.91251
6.80098
6.71164
6.71173
6.78053
6.88472
6.93672
6.92049
6.85397
6.75942
6.65485
6.53562
6.41159
6.25981
6.13506
6.27686
6.13569
6.12173
6.18246
6.26919
6.35959
6.44052
6.52364
6.62796
6.79136
7.01953
7.23926
7.33344
7.29589
7.21348
7.05494
6.92314
6.78865
6.7165
6.69494
6.71683
6.71413
6.66301
6.56397
6.44061
6.31516
6.1851
6.05879
5.92193
5.81667
5.96589
5.89157
5.91652
5.99791
6.10258
6.21422
6.32301
6.44715
6.59564
6.81718
7.11143
7.38346
7.52173
7.51615
7.4636
7.32128
7.18316
7.01508
6.87563
6.75475
6.66911
6.58972
6.48672
6.34791
6.19213
6.04165
5.89605
5.7624
5.63396
5.54351
5.71212
5.69755
5.75493
5.8611
5.99132
6.13372
6.27615
6.43893
6.6586
6.94676
7.30407
7.63024
7.82422
7.87249
7.87424
7.76889
7.64163
7.44964
7.24089
7.00122
6.78242
6.57661
6.40205
6.21155
6.01906
5.83929
5.67441
5.52996
5.40405
5.3237
5.52332
5.55603
5.64552
5.78378
5.94248
6.1169
6.31895
6.54964
6.83917
7.20319
7.63598
8.0322
8.30437
8.43517
8.53173
8.48982
8.39525
8.19355
7.89222
7.50192
7.1042
6.73423
6.40925
6.16023
5.9316
5.7161
5.52778
5.36954
5.24084
5.16583
5.40539
5.47562
5.59847
5.76838
5.98321
6.22569
6.49383
6.80161
7.18101
7.64289
8.17589
8.67212
9.06076
9.31972
9.57043
9.63368
9.60556
9.38689
8.96078
8.36952
7.72676
7.11601
6.60604
6.23548
5.92318
5.67251
5.46467
5.29362
5.15629
5.08008
5.36348
5.469
5.65066
5.8896
6.17237
6.48792
6.84666
7.25967
7.76177
8.35904
9.03584
9.68402
10.2524
10.7138
11.2114
11.4494
11.5383
11.2493
10.6442
9.78088
8.80311
7.84392
7.04917
6.51338
6.10654
5.78285
5.51597
5.30857
5.15651
5.08284
5.4421
5.60927
5.86518
6.18586
6.5614
6.98374
7.47335
8.03724
8.71579
9.51149
10.4055
11.292
12.1441
12.929
13.8178
14.3414
14.4899
14.0667
13.2006
11.9755
10.5621
9.12351
7.91684
7.10515
6.54088
6.1102
5.76992
5.50855
5.31954
5.22987
5.72163
5.96817
6.32796
6.76733
7.27913
7.86336
8.55037
9.34089
10.2849
11.3827
12.6144
13.879
15.179
16.475
17.9597
18.7762
18.8222
18.113
16.8682
15.1904
13.2722
11.2567
9.51287
8.29179
7.43665
6.81902
6.34374
5.98397
5.72694
5.60138
6.3717
6.72864
7.24245
7.86172
8.58329
9.42217
10.4173
11.5604
12.9153
14.4802
16.2359
18.0886
20.0698
22.1237
24.4106
25.0839
24.6893
23.4301
21.6628
19.4949
17.1107
14.581
12.3143
10.6102
9.25164
8.27918
7.5406
6.98481
6.58815
6.37923
7.79454
8.31104
9.06267
9.96273
11.0171
12.2639
13.7444
15.4377
17.4205
19.6868
22.2124
24.9058
27.8021
30.7659
33.2746
33.0814
31.6773
29.5377
27.1531
24.5762
21.9381
19.2323
16.8067
14.7714
12.9499
11.3103
10.0545
9.09778
8.39811
7.99301
10.9965
11.7338
12.8437
14.1718
15.7329
17.6049
19.8041
22.2934
25.1438
28.3289
31.8012
35.4365
39.1661
42.2155
43.6372
41.4679
38.4869
35.2349
32.2661
29.5191
27.0238
24.746
22.9124
21.2654
19.4783
17.5109
15.3902
13.6954
12.3611
11.5017
18.3571
19.3283
20.8693
22.7148
24.8886
27.5153
30.5353
33.8887
37.5905
41.5568
45.6594
49.6392
52.8976
53.81
52.7358
47.6436
42.8313
38.5251
35.214
32.6588
30.7808
29.5698
29.1484
28.9415
28.429
27.3728
25.7093
23.3246
21.0532
19.3536
33.2387
34.398
36.115
38.1317
40.5159
43.4232
46.6897
50.2211
53.917
57.5764
60.8722
63.1019
62.915
60.4771
56.0734
48.1741
41.983
37.0891
33.8058
31.7448
30.7357
30.8386
32.0726
33.8339
35.5277
36.8421
37.6132
37.5685
36.4854
34.7256
47.6417
50.4359
52.7678
54.5218
56.3199
58.3865
60.6031
62.8568
64.9567
66.5122
66.9271
65.3139
61.6773
56.3438
49.6202
40.7803
34.399
29.8561
27.0013
25.4534
25.0474
25.8099
27.6864
30.3827
33.4819
36.7239
39.9238
43.0352
45.8692
48.3813
33.8834
40.821
42.1954
42.2016
41.2167
39.2059
36.3588
32.9048
28.9314
24.636
19.9249
15.1707
11.1328
12.684
19.4022
28.2444
37.1255
47.606
53.0245
54.4352
52.6985
49.3636
45.3304
41.1019
36.8342
32.5238
28.339
23.8208
20.0269
16.5063
17.8489
18.7824
18.831
18.7766
18.6136
18.1198
17.2653
16.0857
14.631
12.9247
10.9535
8.77667
7.18823
8.72702
12.412
16.7433
21.2432
26.0259
28.3055
28.7856
27.9426
26.3835
24.5408
22.5977
20.6573
18.7283
16.92
15.0609
13.7951
12.6117
15.8991
15.6613
15.2049
14.8917
14.6386
14.3242
13.855
13.1696
12.254
11.0984
9.6706
8.01347
6.94361
8.36682
11.1663
14.4344
17.8861
21.4717
23.2331
23.6328
23.0659
21.9786
20.6834
19.3057
17.9047
16.4769
15.1346
13.7674
12.9516
12.2526
15.1758