/*--------------------------------*- C++ -*----------------------------------*\
| =========                 |                                                 |
| \\      /  F ield         | OpenFOAM: The Open Source CFD Toolbox           |
|  \\    /   O peration     | Version:  5.0                                   |
|   \\  /    A nd           | Web:      www.OpenFOAM.org                      |
|    \\/     M anipulation  |                                                 |
\*---------------------------------------------------------------------------*/
FoamFile
{
    version     2.0;
    format      ascii;
    class       volScalarField;
    location    "550/air";
    object      k;
}
// * * * * * * * * * * * * * * * * * * * * * * * * * * * * * * * * * * * * * //

dimensions      [0 2 -2 0 0 0 0];

internalField   nonuniform List<scalar> 
243000
(
0.124421
0.131743
0.13117
0.128026
0.122812
0.116323
0.109111
0.101689
0.0943581
0.0875651
0.0815176
0.0766105
0.0724833
0.0685315
0.0644017
0.0599713
0.0551333
0.049977
0.0442347
0.0378869
0.0342198
0.0317636
0.0361363
0.0434474
0.0492781
0.0542071
0.0580715
0.0618632
0.0672324
0.0756469
0.206782
0.218429
0.21258
0.203824
0.192711
0.180411
0.167704
0.155149
0.143038
0.131874
0.121726
0.112917
0.105011
0.0982656
0.0924673
0.0869784
0.0810909
0.0747093
0.066998
0.0592096
0.0501588
0.0461426
0.0649771
0.0790708
0.0912341
0.101718
0.1091
0.11571
0.125051
0.140451
0.25115
0.263245
0.256597
0.246011
0.232612
0.21777
0.202403
0.187175
0.172486
0.158962
0.146709
0.136124
0.126544
0.118303
0.111195
0.104485
0.0973034
0.0894183
0.0799903
0.0712729
0.0616321
0.0560014
0.0782555
0.0981723
0.116163
0.130596
0.140511
0.148803
0.159682
0.176291
0.28201
0.292983
0.286725
0.275817
0.261743
0.245952
0.229359
0.212689
0.19647
0.181466
0.167899
0.156305
0.145756
0.136434
0.128142
0.120174
0.111597
0.102068
0.0911521
0.0817098
0.0721131
0.066065
0.08754
0.113397
0.136638
0.154457
0.166577
0.176296
0.18816
0.205161
0.304058
0.313029
0.307447
0.296952
0.283107
0.267314
0.25039
0.233088
0.216044
0.200177
0.18588
0.173792
0.162726
0.152628
0.143306
0.134144
0.124207
0.113057
0.100994
0.0910494
0.0819045
0.0762241
0.0948518
0.125252
0.152604
0.173558
0.18776
0.198901
0.211588
0.228563
0.319733
0.326365
0.321487
0.311784
0.298697
0.283466
0.266776
0.249377
0.231995
0.215711
0.201101
0.18887
0.177579
0.166928
0.156734
0.146478
0.135288
0.12264
0.109786
0.0995422
0.0910141
0.0860755
0.101222
0.134186
0.164023
0.18808
0.204439
0.217118
0.230589
0.247412
0.329911
0.33477
0.330598
0.321893
0.30987
0.295536
0.27944
0.262308
0.244935
0.228561
0.213938
0.201793
0.190463
0.179438
0.168506
0.157288
0.144967
0.131019
0.117684
0.107291
0.0993966
0.0953528
0.107249
0.140877
0.171492
0.198149
0.216943
0.231336
0.245599
0.262272
0.335544
0.339424
0.335955
0.32835
0.317574
0.304336
0.289068
0.27245
0.255346
0.239126
0.224697
0.212782
0.201528
0.190261
0.178728
0.166687
0.15338
0.138357
0.12481
0.114358
0.10702
0.103881
0.113485
0.145425
0.175843
0.204515
0.225443
0.241795
0.256914
0.273489
0.337641
0.341165
0.338424
0.331954
0.322445
0.310425
0.29616
0.280238
0.2636
0.247722
0.233633
0.222028
0.21092
0.199514
0.187506
0.174788
0.160662
0.144903
0.131312
0.120806
0.113879
0.111552
0.119832
0.148642
0.178914
0.20766
0.230718
0.248813
0.264829
0.281441
0.337044
0.340707
0.338913
0.333505
0.325215
0.314349
0.301054
0.285975
0.269981
0.254598
0.240952
0.229698
0.21878
0.2073
0.19495
0.181708
0.166921
0.150975
0.137293
0.126685
0.120002
0.118326
0.12588
0.151183
0.180919
0.208306
0.233098
0.252935
0.269894
0.286676
0.334481
0.338444
0.337666
0.333533
0.326344
0.316582
0.304261
0.289976
0.274701
0.259939
0.246816
0.235942
0.225228
0.213738
0.201172
0.187559
0.172255
0.156438
0.142754
0.132027
0.12543
0.124216
0.131356
0.15331
0.182146
0.20752
0.23322
0.254511
0.272393
0.289472
0.330112
0.334613
0.334926
0.332098
0.326197
0.317444
0.306051
0.292573
0.277994
0.263924
0.251366
0.240879
0.230375
0.218947
0.206288
0.192449
0.17677
0.161299
0.147706
0.136867
0.130214
0.129245
0.136071
0.155086
0.182731
0.206511
0.231065
0.253992
0.27281
0.290233
0.324211
0.329484
0.330943
0.329415
0.324794
0.317176
0.306666
0.293963
0.280108
0.266677
0.254732
0.244623
0.234342
0.223049
0.210412
0.196483
0.180613
0.165636
0.1522
0.14125
0.134403
0.133414
0.13987
0.156626
0.182559
0.205106
0.227644
0.251307
0.271186
0.289155
0.31697
0.323253
0.325914
0.325696
0.322256
0.315771
0.306247
0.294344
0.281197
0.26842
0.257021
0.24729
0.237253
0.226165
0.213655
0.19975
0.18408
0.169586
0.156312
0.145232
0.138034
0.136698
0.142707
0.157756
0.181668
0.203355
0.224425
0.246936
0.267805
0.286374
0.308582
0.316074
0.319998
0.321052
0.318778
0.31333
0.304793
0.293786
0.281422
0.269274
0.25838
0.248981
0.239232
0.228414
0.216125
0.202335
0.18728
0.173216
0.1601
0.148864
0.141157
0.139136
0.144591
0.158352
0.18024
0.201255
0.221143
0.241737
0.26299
0.282149
0.299226
0.308078
0.3133
0.31557
0.314445
0.309981
0.302377
0.292299
0.280803
0.269382
0.25896
0.249859
0.240384
0.229904
0.21792
0.204337
0.190124
0.176547
0.163612
0.152196
0.143846
0.14089
0.145619
0.158417
0.178381
0.198828
0.217777
0.236983
0.25709
0.276697
0.289193
0.299394
0.305901
0.309332
0.309325
0.305811
0.299084
0.289942
0.279373
0.26873
0.258889
0.250097
0.240885
0.230741
0.219124
0.205903
0.192655
0.179625
0.166902
0.155296
0.146226
0.142148
0.145962
0.157806
0.176139
0.196104
0.214294
0.232417
0.250932
0.270231
0.27971
0.290193
0.297902
0.30243
0.303461
0.300883
0.295038
0.286795
0.277173
0.267348
0.25812
0.249719
0.240867
0.231069
0.219832
0.207398
0.195012
0.182527
0.170039
0.158237
0.14842
0.14309
0.145647
0.156513
0.173546
0.193124
0.210686
0.227953
0.24523
0.262961
0.270923
0.281504
0.289605
0.294996
0.296954
0.295287
0.29032
0.282997
0.274275
0.265249
0.25665
0.248687
0.240256
0.230927
0.220175
0.208841
0.197271
0.185326
0.173088
0.161106
0.150555
0.143887
0.144814
0.154592
0.170643
0.189937
0.206959
0.223511
0.23972
0.255458
0.262681
0.273384
0.281826
0.28744
0.289962
0.28912
0.285001
0.278584
0.270764
0.262554
0.254597
0.247105
0.239136
0.230328
0.220583
0.210292
0.199502
0.188091
0.176115
0.16399
0.152753
0.144717
0.14369
0.152154
0.167491
0.186609
0.203137
0.219063
0.234369
0.248681
0.254852
0.265751
0.274478
0.280372
0.283142
0.282748
0.279291
0.273718
0.266817
0.259464
0.252186
0.245194
0.237877
0.229914
0.221205
0.211833
0.201774
0.190891
0.179193
0.166978
0.155125
0.145728
0.14258
0.149383
0.164198
0.183228
0.19928
0.214626
0.229152
0.242412
0.247388
0.258525
0.267488
0.273689
0.276729
0.27682
0.274025
0.269275
0.263277
0.256782
0.250221
0.243793
0.237096
0.229948
0.222093
0.213537
0.204165
0.193805
0.182412
0.170169
0.157791
0.147106
0.141807
0.146553
0.160934
0.1799
0.195477
0.210254
0.224077
0.23653
0.240271
0.251639
0.260809
0.267287
0.270688
0.271266
0.269148
0.265208
0.2601
0.254465
0.24865
0.24283
0.236817
0.230367
0.223296
0.215495
0.206788
0.196962
0.185912
0.173716
0.160914
0.149063
0.141669
0.144049
0.157994
0.176814
0.191895
0.20608
0.219222
0.231
0.233504
0.245047
0.254399
0.261171
0.264984
0.266036
0.264607
0.26148
0.257264
0.252499
0.247457
0.242332
0.237027
0.231284
0.224969
0.21792
0.2099
0.200649
0.189998
0.177925
0.164797
0.151912
0.142462
0.142331
0.155798
0.174231
0.188774
0.202315
0.214749
0.225896
0.22717
0.238829
0.248327
0.255359
0.259601
0.261106
0.260399
0.258108
0.25481
0.250959
0.246784
0.242473
0.237936
0.233029
0.227574
0.221377
0.214144
0.205552
0.195371
0.183478
0.170084
0.156231
0.144791
0.142214
0.155044
0.1725
0.186376
0.199148
0.210797
0.221292
0.221557
0.233196
0.242722
0.249936
0.25463
0.256589
0.256644
0.255264
0.253001
0.250233
0.247166
0.243918
0.240488
0.23674
0.232459
0.227373
0.221109
0.213286
0.203612
0.191882
0.178177
0.163318
0.149825
0.144472
0.156489
0.172462
0.18527
0.196963
0.207684
0.21744
0.217432
0.228847
0.238265
0.245569
0.250703
0.253301
0.254332
0.254205
0.25341
0.252238
0.250888
0.249451
0.247873
0.245951
0.24342
0.239842
0.234694
0.227626
0.218315
0.206528
0.19226
0.176192
0.160582
0.152299
0.161919
0.17539
0.186781
0.197103
0.206472
0.215144
0.217742
0.228807
0.238235
0.24603
0.252249
0.256346
0.259329
0.261595
0.263472
0.265269
0.267169
0.269148
0.270885
0.271852
0.2716
0.269632
0.265341
0.258488
0.248832
0.23629
0.220881
0.203317
0.186026
0.174824
0.179553
0.188605
0.196865
0.204359
0.211295
0.217937
0.248257
0.259308
0.269667
0.279188
0.28778
0.295533
0.302958
0.309793
0.316212
0.32313
0.330565
0.338006
0.344178
0.34824
0.349635
0.348109
0.3433
0.335359
0.324155
0.310127
0.293527
0.275312
0.258618
0.246032
0.243513
0.245522
0.24765
0.249211
0.250667
0.252635
0.462822
0.470993
0.479227
0.487091
0.492096
0.498196
0.506038
0.511484
0.515777
0.523054
0.532242
0.540964
0.545576
0.546372
0.543679
0.538651
0.531199
0.522547
0.51162
0.500711
0.490365
0.481081
0.47512
0.474426
0.47555
0.476871
0.476871
0.475301
0.47259
0.469759
0.185812
0.204951
0.207817
0.204092
0.195821
0.184673
0.171831
0.158237
0.144379
0.131113
0.11867
0.107778
0.0973476
0.0873977
0.0777283
0.068281
0.0588982
0.0536527
0.0509884
0.0521094
0.0436052
0.0434967
0.0537248
0.0711461
0.0828013
0.0855415
0.0859039
0.0840348
0.088204
0.0981554
0.318577
0.343515
0.336563
0.318718
0.295784
0.270987
0.245954
0.221627
0.198458
0.177149
0.157571
0.13987
0.123511
0.113093
0.107542
0.104329
0.101345
0.1033
0.103857
0.11033
0.0977023
0.0981682
0.130748
0.170219
0.192966
0.1974
0.196265
0.186422
0.180782
0.183926
0.399101
0.426343
0.419385
0.400109
0.374666
0.346296
0.316806
0.28745
0.259138
0.232925
0.208738
0.186854
0.166551
0.153914
0.147547
0.144235
0.141395
0.143384
0.143847
0.15451
0.147982
0.151161
0.191742
0.239924
0.268972
0.276922
0.27676
0.265536
0.257603
0.261194
0.456212
0.479089
0.472122
0.453556
0.428755
0.400401
0.369973
0.3388
0.308129
0.279398
0.252778
0.228806
0.206371
0.19178
0.183805
0.179208
0.175255
0.175768
0.175524
0.189235
0.191067
0.2002
0.243668
0.294785
0.327249
0.338219
0.339703
0.329387
0.321133
0.32612
0.498135
0.514082
0.506726
0.489487
0.466491
0.439671
0.409985
0.378692
0.347248
0.317504
0.290033
0.26538
0.241969
0.225744
0.215888
0.209509
0.203914
0.202635
0.202025
0.217709
0.227764
0.243269
0.28571
0.337535
0.372172
0.386068
0.389708
0.381637
0.374082
0.38023
0.528471
0.537133
0.529226
0.513542
0.492831
0.468212
0.440094
0.409616
0.378393
0.34866
0.321363
0.29693
0.273257
0.255683
0.243932
0.235609
0.228286
0.225804
0.22586
0.242715
0.25844
0.278368
0.318139
0.369112
0.405484
0.422659
0.428891
0.423928
0.417651
0.424443
0.549347
0.551566
0.543154
0.529126
0.510904
0.488758
0.462612
0.433481
0.403126
0.374092
0.34764
0.323974
0.300453
0.281785
0.268241
0.258015
0.249197
0.246784
0.246748
0.263882
0.283363
0.305755
0.342749
0.390934
0.428825
0.449257
0.458442
0.457145
0.452537
0.459533
0.562247
0.559575
0.550696
0.538392
0.522759
0.503146
0.47915
0.451672
0.422619
0.394757
0.369554
0.346936
0.323816
0.304292
0.28913
0.277217
0.267444
0.265401
0.264774
0.281357
0.302914
0.32645
0.360671
0.404406
0.443342
0.466813
0.479336
0.4819
0.479341
0.486188
0.568529
0.562802
0.554036
0.543213
0.52975
0.512598
0.490831
0.465194
0.437741
0.411377
0.387656
0.366194
0.343606
0.323483
0.30691
0.293677
0.283916
0.281682
0.280196
0.295441
0.317688
0.341542
0.372825
0.413247
0.450781
0.476566
0.492367
0.498807
0.498693
0.505281
0.570381
0.563289
0.554784
0.545207
0.533568
0.518363
0.498404
0.474739
0.449159
0.424514
0.402394
0.382108
0.360122
0.339606
0.321944
0.307845
0.298863
0.295745
0.293478
0.306746
0.328522
0.352069
0.381154
0.418537
0.453645
0.480774
0.498457
0.508683
0.511148
0.517704
0.568922
0.560572
0.552942
0.545215
0.535062
0.52153
0.50321
0.481074
0.457384
0.434622
0.414146
0.395028
0.373694
0.352956
0.334612
0.320187
0.312296
0.308019
0.304784
0.315823
0.336112
0.358992
0.386327
0.421038
0.454095
0.481003
0.500141
0.512365
0.517283
0.524396
0.562477
0.554589
0.548356
0.542753
0.534824
0.522698
0.505795
0.485113
0.462959
0.442129
0.423274
0.405305
0.384618
0.363914
0.345338
0.331229
0.324381
0.318864
0.314438
0.32292
0.341224
0.363378
0.388828
0.420687
0.45147
0.476448
0.497013
0.511845
0.518622
0.526401
0.552707
0.546407
0.541978
0.5383
0.53245
0.522271
0.506667
0.487305
0.466673
0.447525
0.430176
0.413245
0.393281
0.372899
0.354598
0.341687
0.335347
0.328604
0.3228
0.328588
0.344641
0.365494
0.388977
0.416829
0.445193
0.469538
0.489369
0.506018
0.51484
0.524292
0.540384
0.53653
0.534186
0.532431
0.528372
0.519998
0.506136
0.48808
0.468916
0.451185
0.435263
0.419283
0.400136
0.380395
0.362925
0.351704
0.345354
0.337553
0.330259
0.333274
0.346605
0.365212
0.386092
0.410581
0.436343
0.460282
0.48018
0.49707
0.507565
0.51859
0.526336
0.525428
0.525333
0.525453
0.523134
0.516283
0.504124
0.487818
0.470088
0.453758
0.439019
0.423922
0.405721
0.386982
0.370958
0.361472
0.354735
0.346042
0.337204
0.337369
0.347343
0.362256
0.381007
0.402907
0.426296
0.449386
0.469557
0.486222
0.497823
0.510125
0.511474
0.513568
0.515738
0.51761
0.517059
0.511703
0.501094
0.486548
0.470607
0.455697
0.441987
0.42776
0.410684
0.393354
0.379565
0.371294
0.363959
0.354441
0.344062
0.34123
0.346633
0.357869
0.374741
0.394675
0.41561
0.437542
0.457569
0.4745
0.486511
0.499643
0.496754
0.501447
0.505781
0.509344
0.510463
0.50668
0.497547
0.484864
0.470983
0.457506
0.444799
0.431514
0.415805
0.400337
0.38894
0.381423
0.373437
0.363119
0.351295
0.34524
0.345417
0.353027
0.367883
0.386083
0.404737
0.42535
0.444936
0.462408
0.474888
0.487849
0.482598
0.489976
0.496086
0.501232
0.503833
0.501711
0.494131
0.483646
0.471817
0.459729
0.448221
0.436054
0.422029
0.408995
0.3994
0.392074
0.383572
0.372484
0.359343
0.349775
0.344821
0.348277
0.360722
0.377316
0.394055
0.413327
0.432347
0.450005
0.463104
0.475669
0.469116
0.479034
0.487586
0.494199
0.498013
0.497603
0.491952
0.483926
0.473783
0.463353
0.453247
0.442465
0.430608
0.41962
0.411242
0.403771
0.394844
0.383021
0.368668
0.355373
0.345519
0.344266
0.353651
0.368614
0.383888
0.401947
0.42033
0.437843
0.451541
0.464473
0.456702
0.468983
0.480023
0.488859
0.494379
0.495628
0.492356
0.486174
0.478267
0.469791
0.461229
0.451937
0.441898
0.432463
0.424726
0.417156
0.407858
0.395334
0.379699
0.362993
0.348343
0.341866
0.347253
0.360311
0.374589
0.391714
0.409309
0.426512
0.440657
0.454015
0.445582
0.460345
0.474102
0.485299
0.492886
0.496432
0.495423
0.491519
0.485896
0.479421
0.47247
0.464707
0.45618
0.447847
0.44066
0.433119
0.423502
0.410307
0.393332
0.373625
0.354281
0.341998
0.342434
0.352995
0.366588
0.38302
0.399829
0.416616
0.431108
0.444781
0.43635
0.453699
0.469961
0.48347
0.493408
0.500046
0.501485
0.499923
0.49671
0.492348
0.487158
0.481095
0.474138
0.466968
0.460459
0.453169
0.443294
0.429472
0.411188
0.388753
0.364744
0.346132
0.340586
0.347652
0.360471
0.376264
0.392406
0.408765
0.423412
0.437335
0.429427
0.449246
0.467865
0.483993
0.497787
0.50724
0.511456
0.512416
0.511739
0.509755
0.506667
0.502787
0.49783
0.492251
0.486825
0.480225
0.470332
0.455948
0.436235
0.411053
0.382243
0.356505
0.343669
0.346426
0.358032
0.37318
0.388769
0.404511
0.418938
0.432752
0.425463
0.447571
0.469055
0.489486
0.507001
0.519222
0.526578
0.53075
0.533533
0.534602
0.53416
0.533122
0.531396
0.52862
0.525425
0.520485
0.511254
0.496386
0.474808
0.446149
0.411716
0.377537
0.354847
0.35173
0.361006
0.375537
0.390706
0.405873
0.419761
0.43329
0.426518
0.452118
0.477761
0.501702
0.523344
0.538902
0.551042
0.56009
0.567527
0.573231
0.577175
0.580016
0.583943
0.586737
0.588539
0.587294
0.579843
0.564391
0.539747
0.505483
0.463191
0.418314
0.38197
0.368272
0.373545
0.386119
0.400093
0.413915
0.426914
0.439757
0.439352
0.468336
0.497855
0.52628
0.553565
0.57436
0.59227
0.608285
0.623028
0.636492
0.649307
0.661647
0.674791
0.688448
0.700257
0.705417
0.700247
0.683021
0.65259
0.608966
0.554708
0.495818
0.440637
0.409319
0.405906
0.414053
0.425058
0.436341
0.447346
0.458587
0.475434
0.508772
0.544632
0.579424
0.613105
0.642426
0.670489
0.698231
0.725438
0.752327
0.780378
0.809819
0.839661
0.868332
0.892751
0.903203
0.896666
0.872917
0.831989
0.77535
0.706737
0.633354
0.559238
0.506987
0.486366
0.483941
0.486687
0.49086
0.49616
0.503444
0.573122
0.611826
0.655368
0.6999
0.744223
0.787563
0.831626
0.876468
0.920996
0.96544
1.01167
1.05888
1.10347
1.13786
1.15773
1.15586
1.13225
1.09098
1.03741
0.974663
0.904832
0.831558
0.761207
0.706837
0.67356
0.655438
0.641039
0.627659
0.617123
0.613099
0.819728
0.86282
0.912698
0.965256
1.01709
1.06975
1.12313
1.17551
1.22544
1.2726
1.31295
1.34635
1.36803
1.36658
1.34465
1.30207
1.25197
1.19796
1.14307
1.08954
1.03893
0.994149
0.96544
0.960681
0.960821
0.955901
0.942947
0.919631
0.891827
0.868172
1.16079
1.20936
1.25362
1.29407
1.3272
1.35609
1.3806
1.39923
1.41253
1.42126
1.41603
1.39812
1.36807
1.32928
1.27474
1.21295
1.15687
1.107
1.06341
1.02872
1.0044
0.991681
0.996891
1.02487
1.0628
1.09685
1.12667
1.15217
1.17112
1.18075
0.240756
0.265724
0.268074
0.263591
0.253357
0.239198
0.222526
0.204452
0.185428
0.16631
0.147062
0.12889
0.110604
0.0968979
0.0880523
0.0853439
0.0910674
0.118687
0.138201
0.149781
0.151327
0.147296
0.154499
0.158149
0.156897
0.152192
0.146371
0.138089
0.134237
0.13361
0.408
0.439236
0.432501
0.411467
0.383674
0.35328
0.322202
0.291391
0.261038
0.231748
0.202843
0.173743
0.148444
0.144703
0.15414
0.16991
0.19165
0.2425
0.283
0.307853
0.315538
0.314242
0.318045
0.316877
0.312178
0.302843
0.290684
0.271956
0.255385
0.247667
0.511696
0.542053
0.533112
0.510159
0.479964
0.446441
0.411318
0.375537
0.339584
0.304407
0.269353
0.233649
0.203555
0.201517
0.214632
0.233604
0.258986
0.316923
0.368056
0.402366
0.417552
0.42278
0.428024
0.428019
0.423472
0.412862
0.398515
0.375831
0.355215
0.347488
0.584834
0.606723
0.596282
0.573531
0.544135
0.511192
0.475822
0.438729
0.400621
0.362796
0.324922
0.286343
0.254599
0.252605
0.265458
0.283539
0.308727
0.367184
0.423445
0.464569
0.486436
0.497646
0.506212
0.508971
0.506008
0.495768
0.481013
0.457302
0.435074
0.428287
0.63801
0.649383
0.637557
0.615803
0.588421
0.557476
0.523408
0.486684
0.448233
0.409721
0.371218
0.332398
0.300971
0.298113
0.308679
0.323895
0.346662
0.402151
0.459444
0.505245
0.532767
0.549467
0.562532
0.568695
0.568209
0.559599
0.545789
0.522777
0.500154
0.493748
0.674847
0.67722
0.664335
0.644083
0.619283
0.590931
0.558842
0.523354
0.485625
0.447715
0.410092
0.372726
0.342722
0.338434
0.345567
0.35693
0.376194
0.426167
0.481479
0.529766
0.562232
0.583779
0.60169
0.611564
0.614003
0.607982
0.596201
0.575233
0.55297
0.545873
0.699047
0.694555
0.680875
0.662477
0.640527
0.614976
0.585159
0.551401
0.515083
0.478676
0.442981
0.408122
0.380032
0.373944
0.377042
0.384199
0.399949
0.443086
0.49504
0.543928
0.579485
0.604911
0.626413
0.640399
0.645889
0.643065
0.63402
0.616168
0.594945
0.587127
0.713105
0.703725
0.689788
0.673552
0.65457
0.631801
0.604366
0.572631
0.538214
0.503937
0.470894
0.439113
0.413055
0.404922
0.403859
0.406966
0.420283
0.456939
0.504447
0.552239
0.589363
0.616572
0.639861
0.657375
0.665923
0.666516
0.660602
0.646553
0.626996
0.618007
0.719353
0.707759
0.694166
0.679623
0.662981
0.642839
0.617833
0.588343
0.556202
0.524504
0.494536
0.466078
0.44192
0.431619
0.426724
0.426343
0.437885
0.468231
0.510679
0.556881
0.594399
0.622343
0.645595
0.664452
0.676085
0.679811
0.677165
0.667257
0.65006
0.640186
0.721379
0.708634
0.695567
0.682489
0.667728
0.64956
0.626492
0.59947
0.56996
0.541154
0.514446
0.489313
0.466808
0.454413
0.446248
0.443425
0.452861
0.47732
0.514688
0.55871
0.596134
0.624369
0.647385
0.665974
0.678598
0.684652
0.684833
0.679008
0.664919
0.655074
0.719445
0.706076
0.694326
0.683017
0.669771
0.6533
0.632011
0.606925
0.580223
0.554523
0.531085
0.509081
0.487985
0.473762
0.463083
0.45925
0.465618
0.484481
0.516701
0.556874
0.59301
0.621199
0.643437
0.661487
0.674503
0.682706
0.684791
0.682124
0.672391
0.66384
0.711965
0.699274
0.689561
0.680884
0.669847
0.654746
0.635056
0.611935
0.587781
0.565164
0.544887
0.525698
0.505821
0.490228
0.47794
0.473568
0.476616
0.490097
0.51695
0.551522
0.585802
0.613914
0.635594
0.653033
0.666136
0.675235
0.679577
0.679085
0.671788
0.665505
0.700751
0.689936
0.682467
0.676135
0.667551
0.654534
0.636245
0.615089
0.593295
0.573627
0.556305
0.539572
0.520809
0.504433
0.491728
0.486336
0.486322
0.494751
0.515452
0.544808
0.576684
0.6043
0.6252
0.641707
0.654552
0.664297
0.67003
0.671693
0.667172
0.662718
0.686993
0.678896
0.673933
0.669923
0.663337
0.652377
0.636195
0.616955
0.597535
0.580525
0.565862
0.55124
0.533618
0.51714
0.505326
0.498146
0.495125
0.498963
0.513438
0.537527
0.566313
0.59288
0.613019
0.628497
0.640751
0.65084
0.657534
0.660992
0.658844
0.656703
0.671571
0.666786
0.664486
0.662726
0.658139
0.648985
0.634945
0.618086
0.601044
0.586505
0.57419
0.561404
0.545056
0.529343
0.518612
0.509493
0.503534
0.50317
0.511694
0.530217
0.555243
0.580178
0.599645
0.61417
0.62563
0.635782
0.643198
0.648027
0.647772
0.647619
0.655388
0.654218
0.654611
0.654988
0.65241
0.644996
0.633257
0.619091
0.604381
0.592283
0.582059
0.570943
0.556186
0.542287
0.531624
0.520815
0.51221
0.507727
0.510758
0.52341
0.543984
0.566767
0.585603
0.599358
0.609958
0.619963
0.627882
0.633776
0.634973
0.636586
0.639596
0.641856
0.644809
0.647153
0.646734
0.641264
0.632184
0.620633
0.608434
0.598673
0.590411
0.580972
0.568296
0.556167
0.545041
0.53269
0.521652
0.513191
0.511256
0.517678
0.533127
0.553191
0.571325
0.584544
0.594364
0.604106
0.612337
0.619032
0.621683
0.624668
0.624879
0.630398
0.635906
0.640129
0.641849
0.638678
0.632583
0.623377
0.614165
0.606711
0.600414
0.592817
0.582432
0.571005
0.559569
0.545818
0.532483
0.520365
0.513343
0.513641
0.52335
0.539986
0.55718
0.570098
0.579361
0.588836
0.597292
0.604596
0.608579
0.613117
0.611563
0.619962
0.628169
0.634963
0.639009
0.638766
0.635022
0.628886
0.622673
0.617714
0.61352
0.607637
0.598593
0.587682
0.576101
0.561123
0.545631
0.530041
0.518065
0.512107
0.515447
0.527784
0.543565
0.556347
0.565391
0.574721
0.583365
0.591188
0.596383
0.602514
0.599983
0.611044
0.62225
0.631841
0.638319
0.641586
0.64066
0.637604
0.634405
0.632046
0.629887
0.625547
0.617732
0.607357
0.595868
0.579931
0.562462
0.543503
0.526618
0.514199
0.510551
0.517478
0.531042
0.543685
0.55291
0.562242
0.57114
0.57947
0.58579
0.593459
0.590376
0.604458
0.618436
0.630582
0.641005
0.647725
0.649962
0.650038
0.650012
0.6505
0.650554
0.647842
0.641366
0.631744
0.620734
0.604319
0.585159
0.562904
0.541086
0.521893
0.510365
0.510506
0.520568
0.532773
0.542448
0.551997
0.561244
0.5701
0.577509
0.586391
0.583195
0.600046
0.616735
0.632469
0.647696
0.658028
0.663739
0.667306
0.670814
0.674486
0.677234
0.6765
0.671835
0.663614
0.653743
0.637771
0.617421
0.592073
0.565277
0.538749
0.51796
0.509459
0.514056
0.524739
0.534871
0.544829
0.554503
0.563853
0.572191
0.58177
0.578488
0.59818
0.618728
0.640007
0.659668
0.673856
0.68351
0.691127
0.69878
0.706288
0.712508
0.714833
0.713097
0.707623
0.700315
0.68634
0.665673
0.63796
0.606105
0.571434
0.539339
0.518508
0.515503
0.52241
0.532154
0.542603
0.552987
0.563052
0.572282
0.582193
0.577365
0.601813
0.628341
0.654494
0.678881
0.697532
0.711958
0.724629
0.737524
0.750112
0.761277
0.768594
0.772183
0.771942
0.769905
0.760154
0.740865
0.711779
0.67431
0.629489
0.583903
0.547119
0.529768
0.530572
0.53796
0.54766
0.557865
0.567982
0.577496
0.587498
0.586326
0.616129
0.648008
0.679839
0.709316
0.733744
0.754468
0.774033
0.794143
0.814068
0.832845
0.848299
0.861011
0.870229
0.877463
0.874136
0.857217
0.823258
0.777524
0.721868
0.662444
0.608227
0.570926
0.558483
0.560173
0.566834
0.575229
0.584146
0.593061
0.602835
0.611674
0.647428
0.68601
0.724133
0.760237
0.792773
0.822449
0.852037
0.882616
0.913426
0.943738
0.971684
0.998048
1.02049
1.03874
1.03786
1.01264
0.969427
0.914468
0.849583
0.780074
0.713179
0.659292
0.627757
0.616401
0.615169
0.617736
0.622247
0.628127
0.636246
0.673163
0.715254
0.761234
0.807566
0.852861
0.896971
0.939447
0.983043
1.02772
1.07275
1.11746
1.16002
1.20048
1.23141
1.24555
1.22669
1.18485
1.12857
1.06534
0.996443
0.925922
0.859008
0.805337
0.769649
0.742013
0.726013
0.715257
0.708481
0.705424
0.707873
0.819336
0.865411
0.918599
0.973855
1.02943
1.08637
1.14262
1.19993
1.25683
1.31256
1.36535
1.41253
1.44922
1.4567
1.43853
1.38781
1.32389
1.25447
1.18733
1.12299
1.06427
1.01499
0.984961
0.970486
0.959513
0.942349
0.920184
0.897965
0.878105
0.865703
1.11815
1.16226
1.21396
1.26878
1.32403
1.38106
1.43709
1.49142
1.54204
1.5877
1.62159
1.63726
1.6257
1.58655
1.52497
1.43948
1.35572
1.27906
1.21525
1.16448
1.128
1.10849
1.11431
1.13826
1.16687
1.1909
1.20498
1.20365
1.18957
1.17065
1.39518
1.45193
1.50066
1.54046
1.5758
1.60821
1.63693
1.65974
1.67664
1.68383
1.66986
1.63269
1.57544
1.50043
1.41002
1.30808
1.2197
1.14779
1.09399
1.05861
1.04194
1.04503
1.07188
1.11914
1.17592
1.23221
1.28595
1.3368
1.38141
1.41999
0.290678
0.321353
0.321369
0.315524
0.30368
0.28721
0.267493
0.245731
0.222263
0.197864
0.171988
0.146169
0.120514
0.111365
0.119523
0.148614
0.181912
0.223431
0.24647
0.258884
0.260452
0.256854
0.251617
0.244597
0.23563
0.224468
0.212231
0.196256
0.183498
0.171845
0.489336
0.525698
0.516761
0.493376
0.462078
0.427484
0.391842
0.355927
0.319453
0.282594
0.243494
0.200734
0.169028
0.189781
0.236159
0.298219
0.363494
0.439965
0.484557
0.507826
0.509986
0.499793
0.48453
0.467359
0.448132
0.4254
0.399892
0.366106
0.334902
0.310244
0.614018
0.643706
0.632444
0.606693
0.57311
0.535941
0.496899
0.456363
0.414081
0.37018
0.322822
0.270286
0.234537
0.266437
0.323558
0.393214
0.468272
0.553831
0.610165
0.642715
0.65119
0.644441
0.630237
0.612282
0.59114
0.565121
0.535328
0.495261
0.458086
0.43107
0.699904
0.717523
0.704099
0.678238
0.6457
0.609777
0.571247
0.529942
0.48568
0.438767
0.387806
0.331446
0.296334
0.333533
0.392268
0.460734
0.536819
0.623207
0.6862
0.725862
0.740653
0.739083
0.728448
0.712505
0.692217
0.665986
0.635258
0.593457
0.553433
0.525554
0.760486
0.766288
0.750682
0.72571
0.69554
0.662188
0.625525
0.585037
0.540698
0.493183
0.441619
0.385668
0.354098
0.392897
0.448637
0.511488
0.583396
0.666725
0.732836
0.777837
0.798343
0.801972
0.795838
0.783206
0.765328
0.740739
0.711059
0.670011
0.628824
0.600531
0.801956
0.798126
0.78084
0.757497
0.730343
0.700067
0.665786
0.626861
0.583549
0.537027
0.487073
0.434551
0.408018
0.445746
0.495794
0.550593
0.615322
0.692396
0.75929
0.808001
0.833416
0.841649
0.840109
0.831322
0.816719
0.795072
0.767861
0.729366
0.688226
0.660385
0.828478
0.817548
0.799534
0.778434
0.754527
0.727407
0.69567
0.658743
0.617235
0.572904
0.526291
0.47926
0.458178
0.492849
0.535598
0.581176
0.63713
0.705755
0.770521
0.822073
0.851473
0.863617
0.866076
0.861183
0.850186
0.832279
0.808562
0.774075
0.734131
0.705326
0.843434
0.827679
0.809913
0.791531
0.770842
0.74674
0.717569
0.682947
0.64387
0.602708
0.560732
0.520428
0.504538
0.53469
0.569336
0.605476
0.652124
0.711642
0.773953
0.825552
0.856561
0.871873
0.877451
0.876133
0.868708
0.854864
0.835304
0.805867
0.768419
0.738349
0.850006
0.832681
0.815493
0.79907
0.781033
0.759753
0.73317
0.701152
0.665049
0.627844
0.591378
0.558352
0.546928
0.571639
0.598021
0.625291
0.662955
0.713956
0.770646
0.820594
0.853861
0.870524
0.877803
0.879103
0.874913
0.865011
0.849883
0.826078
0.792497
0.762053
0.85219
0.834203
0.817789
0.803041
0.786941
0.767787
0.743708
0.714675
0.682028
0.649367
0.618896
0.593127
0.585256
0.604049
0.62253
0.64225
0.670463
0.712035
0.761413
0.809189
0.84381
0.861863
0.870417
0.873085
0.871339
0.863649
0.851114
0.833309
0.80632
0.778414
0.850104
0.832218
0.8176
0.80435
0.789901
0.772649
0.750708
0.724595
0.69583
0.668082
0.643745
0.62479
0.619522
0.632352
0.643679
0.656216
0.675473
0.706969
0.749225
0.793792
0.828548
0.847877
0.857445
0.861293
0.860945
0.856218
0.846101
0.830854
0.808247
0.786468
0.842334
0.825597
0.813519
0.803204
0.790691
0.7751
0.755313
0.731969
0.707306
0.684615
0.666285
0.653442
0.649875
0.657043
0.662432
0.667838
0.678743
0.700657
0.735217
0.775582
0.809551
0.829979
0.840456
0.845222
0.846042
0.843297
0.836072
0.82369
0.804472
0.786573
0.830036
0.815804
0.806632
0.799291
0.789515
0.775833
0.75823
0.737808
0.7172
0.69949
0.686826
0.679255
0.676601
0.678723
0.679477
0.67771
0.680919
0.693852
0.720429
0.755696
0.788147
0.809463
0.82082
0.826256
0.828005
0.826817
0.821862
0.812669
0.797132
0.783125
0.81533
0.804545
0.798467
0.793799
0.786563
0.775332
0.76009
0.742721
0.726152
0.713197
0.705718
0.702506
0.700145
0.698162
0.694574
0.686388
0.682583
0.687243
0.705816
0.73512
0.765428
0.787379
0.79966
0.805646
0.80809
0.808058
0.804822
0.798521
0.787013
0.776854
0.79908
0.792452
0.789562
0.78749
0.782548
0.773813
0.761483
0.747323
0.734759
0.726254
0.723408
0.72367
0.721193
0.716547
0.708466
0.694499
0.684336
0.681492
0.692096
0.714803
0.742282
0.764546
0.777829
0.784393
0.787375
0.788235
0.786438
0.782398
0.774441
0.767927
0.782241
0.78016
0.780435
0.780865
0.77842
0.772191
0.763017
0.752351
0.74363
0.73923
0.740514
0.743455
0.740754
0.733908
0.721778
0.702746
0.68685
0.677209
0.679974
0.695592
0.719464
0.741605
0.755964
0.763253
0.766729
0.768365
0.76776
0.765549
0.760481
0.757001
0.766029
0.768369
0.771577
0.774449
0.774773
0.771539
0.765273
0.758393
0.75349
0.752871
0.757884
0.762761
0.760215
0.750869
0.73538
0.711982
0.690914
0.674932
0.670282
0.678309
0.697666
0.719088
0.734529
0.742779
0.746837
0.749233
0.74967
0.748938
0.746335
0.745314
0.751343
0.757395
0.763726
0.76931
0.772311
0.772231
0.769389
0.766272
0.765095
0.768272
0.776493
0.782874
0.779738
0.768437
0.750347
0.72327
0.697517
0.675148
0.663633
0.66391
0.677635
0.697491
0.713889
0.723365
0.728179
0.731375
0.732864
0.733394
0.732789
0.734216
0.738456
0.747714
0.757217
0.7658
0.77173
0.775644
0.776334
0.776858
0.779538
0.786279
0.797046
0.804274
0.80062
0.7879
0.768048
0.737991
0.707995
0.679822
0.660878
0.653624
0.660495
0.677444
0.694432
0.705304
0.711108
0.715235
0.717807
0.719592
0.720604
0.724499
0.727609
0.739807
0.752652
0.764023
0.773888
0.781793
0.786235
0.790596
0.797216
0.807405
0.82045
0.828359
0.824495
0.810951
0.790312
0.758025
0.724223
0.690458