/*--------------------------------*- C++ -*----------------------------------*\
| =========                 |                                                 |
| \\      /  F ield         | OpenFOAM: The Open Source CFD Toolbox           |
|  \\    /   O peration     | Version:  5.0                                   |
|   \\  /    A nd           | Web:      www.OpenFOAM.org                      |
|    \\/     M anipulation  |                                                 |
\*---------------------------------------------------------------------------*/
FoamFile
{
    version     2.0;
    format      ascii;
    class       volScalarField;
    location    "550/air";
    object      nut;
}
// * * * * * * * * * * * * * * * * * * * * * * * * * * * * * * * * * * * * * //

dimensions      [0 2 -1 0 0 0 0];

internalField   nonuniform List<scalar> 
243000
(
0.00018637
0.00018465
0.000177531
0.000169202
0.000160103
0.0001508
0.00014164
0.000132923
0.000124802
0.000117538
0.00011124
0.000106155
0.000102036
9.84345e-05
9.50535e-05
9.17528e-05
8.83778e-05
8.48879e-05
8.0952e-05
7.61612e-05
7.07474e-05
6.67458e-05
7.89567e-05
8.91469e-05
9.78749e-05
0.000106137
0.00011384
0.000121863
0.000131861
0.000145258
0.00085152
0.000875731
0.000864035
0.000846198
0.000822933
0.000796339
0.00076786
0.000738615
0.000709242
0.000681042
0.000654352
0.000630236
0.000607715
0.000587703
0.000569971
0.000552791
0.00053392
0.000512799
0.000486023
0.000456852
0.000416782
0.000396056
0.00047496
0.000524458
0.000561951
0.000595366
0.000617633
0.000636627
0.000662199
0.000702107
0.000938212
0.000961284
0.000949251
0.00092966
0.000904145
0.000874951
0.000843609
0.000811327
0.000778889
0.000747769
0.00071839
0.000691943
0.00066702
0.000644685
0.000624832
0.000605664
0.000584671
0.00056089
0.000530719
0.000500543
0.000463861
0.000437859
0.000519354
0.000583147
0.000632942
0.000673996
0.000700433
0.000721533
0.00074793
0.000786228
0.000993998
0.001014
0.00100335
0.000984307
0.000959042
0.000929807
0.000898003
0.00086484
0.000831271
0.00079894
0.000768495
0.000741401
0.000715776
0.000692236
0.000670678
0.000649481
0.000626119
0.000599312
0.000566378
0.000535419
0.000500995
0.000475274
0.000547033
0.00062566
0.000685693
0.000732538
0.000762293
0.000785073
0.000811615
0.000847856
0.001032
0.00104797
0.00103887
0.00102123
0.000997329
0.000969269
0.000938209
0.000905315
0.000871657
0.000839077
0.000808543
0.000781699
0.000756217
0.000732111
0.000709229
0.000686206
0.000660604
0.000630896
0.00059613
0.000564862
0.00053328
0.000510098
0.000567711
0.00065642
0.000723993
0.000776175
0.000809053
0.000833673
0.000860447
0.000894635
0.00105816
0.0010699
0.00106219
0.0010463
0.00102431
0.000998022
0.000968336
0.000936343
0.000903201
0.000870962
0.000840922
0.000814818
0.000789904
0.00076561
0.00074172
0.000717111
0.000689556
0.000657271
0.000621561
0.000590447
0.000561789
0.000541886
0.000585439
0.000678596
0.000749907
0.000807662
0.000844002
0.000870846
0.000898082
0.000930553
0.00107486
0.00108343
0.00107699
0.00106299
0.00104316
0.00101893
0.000990952
0.000960227
0.000927973
0.000896451
0.000867259
0.000842147
0.000817992
0.000793759
0.000769097
0.000743178
0.000713939
0.000679524
0.000643575
0.000612931
0.000586941
0.000570358
0.00060208
0.000694461
0.00076639
0.000828549
0.000869195
0.000898745
0.000926708
0.000957883
0.00108404
0.00109077
0.00108553
0.00107345
0.00105591
0.00103386
0.00100776
0.000978516
0.000947401
0.000916847
0.000888707
0.000864687
0.000841363
0.00081734
0.000792123
0.000765156
0.000734515
0.00069839
0.000662794
0.00063279
0.000609024
0.000595456
0.000619137
0.000704729
0.000776461
0.000841394
0.000885758
0.000918619
0.00094766
0.000977956
0.00108735
0.0010934
0.00108936
0.00107917
0.00106383
0.00104401
0.00101993
0.000992295
0.000962494
0.000933085
0.000906108
0.000883193
0.000860695
0.000836979
0.000811396
0.000783635
0.000751904
0.000714456
0.000679778
0.000650414
0.000628312
0.00061726
0.000636189
0.000711757
0.000783868
0.000847457
0.000895826
0.000931712
0.000962032
0.000991904
0.00108628
0.00109251
0.00109002
0.00108155
0.00106825
0.00105046
0.00102819
0.00100228
0.000973962
0.000945841
0.000920095
0.000898243
0.000876546
0.000853162
0.000827403
0.000799105
0.000766573
0.00072923
0.00069508
0.000666137
0.000645115
0.000635968
0.000652149
0.000717174
0.000788546
0.000848479
0.000900174
0.000939217
0.000971063
0.00100093
0.00108199
0.0010887
0.00108783
0.00108147
0.00106999
0.00105406
0.00103353
0.00100915
0.000982321
0.000955599
0.000931125
0.000910299
0.000889335
0.000866322
0.000840567
0.000811978
0.000778883
0.000742349
0.000708809
0.000680162
0.000659725
0.000651874
0.000666399
0.000721682
0.000791322
0.000847295
0.000900191
0.000941968
0.000975405
0.00100563
0.00107473
0.00108235
0.00108324
0.00107898
0.00106961
0.00105538
0.00103645
0.00101354
0.000988079
0.000962784
0.000939574
0.000919709
0.000899411
0.000876832
0.000851253
0.000822604
0.00078915
0.000753845
0.000721049
0.000692672
0.000672411
0.000665289
0.000678598
0.000725517
0.000792602
0.000845371
0.000895807
0.000940818
0.000976021
0.00100678
0.00106489
0.00107386
0.00107661
0.00107446
0.00106717
0.00105481
0.00103739
0.00101584
0.000991719
0.000967688
0.000945753
0.00092677
0.000907098
0.000885029
0.000859785
0.000831288
0.000797711
0.000763912
0.000731974
0.000703843
0.000683442
0.000676389
0.000688397
0.00072894
0.00079214
0.000842536
0.000889319
0.000935634
0.000972931
0.0010047
0.00105277
0.0010635
0.00106824
0.00106823
0.00106286
0.00105234
0.00103656
0.0010164
0.000993543
0.000970745
0.000949908
0.000931756
0.000912698
0.000891213
0.00086645
0.00083828
0.000805085
0.000772898
0.000741819
0.000713872
0.00069301
0.000685278
0.000695768
0.000731522
0.000789968
0.000838889
0.000883028
0.000927274
0.00096664
0.000999655
0.00103857
0.00105147
0.00105836
0.00106044
0.00105697
0.00104813
0.00103398
0.00101533
0.00099385
0.000972199
0.000952346
0.00093489
0.000916482
0.000895658
0.000871509
0.000843795
0.000811985
0.000781088
0.000750787
0.00072293
0.00070132
0.000692016
0.000700806
0.0007329
0.000786557
0.000834464
0.000876518
0.000917486
0.000957695
0.000992049
0.0010225
0.00103794
0.00104708
0.0010512
0.00104963
0.0010424
0.00102975
0.00101264
0.000992652
0.000972316
0.000953356
0.0009365
0.000918676
0.000898602
0.00087519
0.00084804
0.000818116
0.00078855
0.000759024
0.000731185
0.000708525
0.000697029
0.000703756
0.000733083
0.000782167
0.000829313
0.000869767
0.000908385
0.000946697
0.000982227
0.00100504
0.00102305
0.00103451
0.00104062
0.00104093
0.00103525
0.00102402
0.00100844
0.000990022
0.000971055
0.000953163
0.000936916
0.00091963
0.000900268
0.000877676
0.000851256
0.000823503
0.000795372
0.000766667
0.00073882
0.000714909
0.000700819
0.000705042
0.000731749
0.000776918
0.000823499
0.00086272
0.000899537
0.000935223
0.000970509
0.000988356
0.00100704
0.00102076
0.00102883
0.00103089
0.00102677
0.00101697
0.00100285
0.000986019
0.000968475
0.000951693
0.000936182
0.000919597
0.00090094
0.000879152
0.000854138
0.000828445
0.000801739
0.000773881
0.000746019
0.000720774
0.000703885
0.000704941
0.000728867
0.000770877
0.000817097
0.000855352
0.000890786
0.00092445
0.00095722
0.000972626
0.00099175
0.00100633
0.001016
0.00101966
0.00101708
0.00100871
0.000996098
0.000980775
0.000964605
0.000948935
0.000934227
0.000918442
0.000900708
0.000879821
0.000856986
0.000833149
0.000807821
0.000780826
0.000752976
0.000726461
0.000706675
0.00070369
0.000724545
0.000764116
0.000810203
0.000847672
0.000881987
0.000913919
0.000943435
0.000957622
0.000977247
0.000992598
0.00100278
0.00100748
0.00100631
0.000999338
0.000988217
0.000974397
0.000959628
0.00094509
0.000931229
0.0009163
0.000899549
0.000880439
0.000859836
0.000837761
0.000813778
0.000787661
0.000759891
0.000732244
0.000709605
0.000701866
0.000719041
0.00075677
0.000802956
0.000839728
0.000873085
0.000903572
0.000930804
0.000943142
0.000963413
0.000979438
0.000990253
0.000995422
0.000995
0.000989103
0.000979365
0.00096708
0.000953781
0.000940431
0.000927455
0.000913716
0.000898497
0.000881504
0.000862857
0.000842429
0.000819758
0.000794538
0.000766959
0.000738374
0.000712987
0.000700248
0.000712816
0.000749084
0.000795542
0.000831639
0.000864118
0.000893376
0.000918962
0.000929123
0.000950125
0.000966763
0.000978261
0.000983943
0.00098436
0.00097957
0.000971214
0.00096047
0.000948672
0.000936602
0.00092465
0.000912056
0.000898401
0.000883124
0.000866201
0.000847311
0.00082593
0.000801649
0.000774404
0.000745118
0.000717234
0.000699559
0.000706565
0.000741459
0.000788202
0.000823589
0.000855194
0.00088335
0.000907709
0.000915559
0.000937289
0.000954518
0.000966616
0.000973013
0.000974287
0.000970662
0.000963699
0.000954501
0.000944232
0.000933517
0.000922688
0.000911354
0.000899065
0.000885379
0.000870051
0.000852643
0.000832561
0.000809294
0.000782556
0.000752841
0.000722838
0.000700507
0.000701281
0.000734656
0.000781388
0.000815962
0.0008466
0.000873662
0.00089701
0.000902485
0.000924844
0.000942612
0.000955362
0.000962586
0.000964714
0.000962303
0.000956764
0.000949144
0.000940442
0.00093115
0.000921597
0.000911635
0.00090072
0.000888567
0.000874819
0.000858937
0.00084024
0.000818115
0.000792072
0.000762206
0.000730493
0.00070375
0.000698094
0.000729691
0.000775697
0.000809289
0.000838797
0.000864666
0.000887038
0.00089008
0.000912955
0.000931205
0.000944551
0.000952652
0.000955613
0.000954498
0.000950453
0.000944484
0.000937453
0.000929746
0.00092175
0.000913257
0.000903988
0.000893578
0.000881616
0.000867469
0.000850352
0.000829554
0.000804394
0.000774621
0.000741519
0.000710777
0.000699086
0.000728397
0.000771959
0.000804171
0.000832207
0.000856666
0.00087797
0.000878966
0.000902069
0.000920563
0.000934367
0.000943403
0.000947216
0.000947492
0.000945097
0.000941022
0.000935981
0.000930358
0.00092437
0.000918016
0.000911027
0.000902987
0.000893345
0.000881333
0.000866082
0.000846785
0.000822616
0.000793044
0.000758768
0.000724281
0.000705883
0.000732448
0.00077221
0.000801945
0.000827706
0.00085036
0.000870347
0.000870747
0.000893609
0.000912046
0.00092613
0.000936027
0.000941068
0.000943144
0.000943051
0.000941693
0.000939625
0.000937222
0.000934665
0.00093186
0.000928427
0.000923867
0.000917342
0.000907829
0.000894551
0.000876666
0.000853329
0.000823847
0.000788529
0.000750865
0.000726069
0.000746366
0.000779232
0.000805483
0.000828175
0.00084802
0.000865879
0.000871491
0.00089362
0.00091206
0.00092706
0.000938913
0.000946718
0.000952351
0.000956622
0.000960148
0.000963501
0.000967034
0.000970718
0.000973982
0.000975902
0.000975675
0.000972422
0.000965036
0.000952983
0.000935606
0.000912383
0.000882712
0.000846915
0.00080861
0.000779515
0.000788017
0.000808982
0.000827506
0.000843679
0.000858193
0.000871783
0.000931109
0.000951821
0.000970818
0.000987957
0.00100313
0.00101671
0.00102948
0.00104111
0.00105191
0.00106337
0.00107559
0.00108773
0.00109775
0.00110438
0.00110682
0.00110467
0.00109734
0.00108502
0.00106721
0.00104434
0.00101638
0.00098421
0.000952653
0.000926713
0.00092059
0.000924802
0.000929374
0.000932656
0.000935607
0.00093943
0.00127277
0.00128405
0.0012953
0.00130594
0.00131259
0.00132059
0.00133089
0.00133815
0.00134378
0.00135308
0.00136498
0.00137628
0.00138225
0.00138345
0.00138023
0.00137403
0.00136467
0.00135385
0.00133975
0.00132541
0.00131154
0.00129878
0.00128975
0.00128791
0.00128938
0.00129139
0.00129167
0.00128971
0.00128618
0.00128246
0.000227711
0.000230293
0.000223472
0.000213671
0.000202226
0.000190083
0.000177838
0.000165921
0.000154503
0.000143967
0.000134375
0.000126083
0.000118434
0.000111313
0.000104531
9.79314e-05
9.12056e-05
8.71449e-05
8.4787e-05
8.59717e-05
7.86104e-05
8.14798e-05
9.35436e-05
0.000111147
0.000124916
0.000132061
0.000137407
0.00014116
0.000150421
0.000165269
0.00103058
0.00109848
0.0010102
0.00089715
0.000789246
0.000695346
0.000615611
0.00054799
0.000490666
0.000443287
0.000401487
0.000362467
0.000327539
0.000316526
0.000325382
0.000342692
0.000360318
0.000384041
0.000405691
0.000442071
0.000431972
0.000470879
0.000589025
0.000692253
0.000746502
0.000751707
0.000748516
0.000716287
0.000668536
0.000657234
0.0017249
0.00188905
0.0018015
0.00164398
0.00147202
0.00130986
0.00116524
0.00103922
0.000931465
0.000842669
0.000765293
0.000693021
0.000630931
0.000613754
0.000629301
0.000654332
0.000676234
0.000704482
0.000745153
0.000818349
0.000834926
0.000893054
0.00106078
0.0012305
0.00132042
0.00133981
0.00133981
0.00129675
0.00122122
0.00121768
0.0022833
0.00248712
0.00242564
0.0022657
0.00206748
0.00186603
0.00167689
0.00150627
0.00135862
0.00123454
0.00112335
0.00102567
0.000945132
0.000921511
0.000935952
0.000958287
0.000974543
0.00100208
0.00106054
0.00116526
0.00121555
0.00129034
0.00148301
0.00169539
0.00181281
0.00185025
0.00186033
0.00182144
0.00174015
0.00175053
0.00273636
0.00294635
0.00291238
0.00276604
0.00256326
0.0023432
0.00212669
0.00192529
0.00174598
0.00159316
0.00146047
0.00134535
0.00125318
0.0012226
0.00123025
0.00124345
0.00124875
0.00127588
0.00135192
0.00148143
0.0015654
0.00165878
0.00186163
0.00210127
0.00224053
0.00229628
0.00232016
0.00229308
0.0022178
0.00223877
0.0031118
0.00330797
0.00329571
0.00316793
0.00297219
0.00274688
0.00251567
0.00229437
0.00209189
0.00191906
0.00177295
0.00164813
0.00154953
0.00151114
0.001508
0.00150795
0.00149988
0.00153006
0.00162214
0.00176879
0.00187957
0.00199004
0.00219241
0.00243919
0.00260383
0.00268308
0.00272417
0.00271469
0.00265066
0.00267812
0.00342072
0.00359634
0.00359978
0.00349108
0.00330866
0.00308671
0.00285005
0.0026174
0.0024003
0.00221398
0.00206101
0.00193358
0.00183152
0.00178436
0.00176765
0.00175191
0.00173035
0.00176893
0.00186712
0.00202332
0.00215443
0.00227972
0.00246708
0.00270569
0.00289634
0.00300619
0.00307149
0.00308549
0.0030373
0.00306779
0.00367127
0.00382867
0.00384012
0.00374947
0.00358435
0.00337133
0.00313622
0.00289932
0.00267626
0.00248215
0.00232501
0.00220017
0.00209738
0.00204056
0.00200837
0.00197609
0.00194371
0.00198915
0.00208498
0.00224348
0.00238861
0.00252116
0.00268898
0.00290673
0.0031255
0.00326936
0.00336169
0.00340233
0.00337636
0.00340527
0.00387418
0.00401842
0.0040372
0.003959
0.00380759
0.00360704
0.00337931
0.00314441
0.00292133
0.00272698
0.00256801
0.00244554
0.00234516
0.00227873
0.00222971
0.00218161
0.00214479
0.00218836
0.00227495
0.00242815
0.00257913
0.00271265
0.00286
0.00308144
0.00330864
0.00347928
0.0035987
0.00366584
0.00366687
0.00369551
0.00405089
0.00418705
0.00420742
0.00413619
0.0039953
0.00380394
0.00358222
0.003355
0.00313795
0.00294849
0.00279351
0.00267151
0.00257126
0.0024978
0.00243211
0.0023701
0.00233423
0.00236464
0.00243736
0.00257793
0.00272757
0.00285935
0.00300723
0.00322751
0.0034559
0.00364883
0.00378313
0.00387658
0.00390667
0.00393822
0.00420728
0.00432175
0.00434595
0.00428932
0.00415551
0.00397272
0.0037583
0.00353601
0.00332801
0.00314719
0.00299931
0.00288184
0.00277822
0.00269476
0.00261628
0.00254378
0.00251063
0.00251996
0.00257294
0.00269483
0.00283768
0.0029701
0.00312802
0.00334424
0.00357627
0.00378777
0.00393916
0.00403944
0.00409442
0.00413854
0.00431087
0.00441551
0.00444597
0.00440757
0.00429408
0.0041188
0.00391154
0.00369588
0.00349419
0.00332463
0.0031855
0.00307345
0.002968
0.00287421
0.00278396
0.0027058
0.00267342
0.00265597
0.00268331
0.00278161
0.00291521
0.00305631
0.00321946
0.00342967
0.00364883
0.00386264
0.00404801
0.0041746
0.00424478
0.0043026
0.00437709
0.00447922
0.00451864
0.00449544
0.0044021
0.00424565
0.00404621
0.00383732
0.00364359
0.00348371
0.00335317
0.00324593
0.00313876
0.00303708
0.002938
0.00286118
0.002822
0.00277413
0.00277095
0.00284252
0.00296658
0.00311484
0.00327915
0.00346412
0.00367081
0.00389169
0.00409643
0.00425178
0.00434435
0.0044297
0.00440982
0.00451597
0.00456681
0.00455922
0.0044836
0.00434615
0.00416378
0.00396306
0.0037779
0.00362538
0.00350386
0.00340061
0.00329208
0.00318473
0.00308139
0.00300935
0.00295434
0.00287596
0.00283899
0.00288087
0.00299074
0.00313817
0.0032897
0.00345778
0.00365318
0.0038806
0.00410629
0.00429202
0.004407
0.00451844
0.00441382
0.004529
0.00459318
0.00460092
0.00454451
0.00442316
0.00425902
0.00407498
0.0038988
0.00375478
0.00363979
0.00353951
0.00343034
0.00332017
0.00321767
0.00314939
0.00307089
0.00296312
0.00289069
0.00289972
0.00298875
0.00311588
0.00326041
0.00342097
0.00361066
0.00384016
0.00408223
0.00429881
0.00443872
0.00457333
0.00439627
0.00452179
0.00459956
0.00462194
0.00458673
0.00448268
0.0043351
0.00416867
0.00400786
0.00387342
0.00376341
0.00366528
0.00355677
0.00344741
0.00335237
0.00328023
0.00317372
0.00303747
0.00292957
0.00290258
0.00295598
0.00306485
0.0032055
0.00336475
0.00354692
0.0037756
0.00402853
0.0042713
0.00444307
0.00459854
0.00436366
0.00449762
0.00458836
0.00462688
0.00461197
0.00452759
0.00439532
0.00424812
0.00410733
0.00398282
0.00387746
0.00378111
0.0036756
0.00356851
0.00348203
0.00339842
0.00326291
0.00309987
0.00295874
0.00289314
0.00290574
0.00299742
0.00313338
0.00329128
0.00346623
0.00369243
0.00395205
0.00421607
0.0044238
0.00459852
0.00430721
0.00446375
0.00456564
0.00462088
0.00462363
0.00456075
0.00444406
0.00432091
0.00419958
0.00408362
0.0039848
0.00389035
0.00378599
0.00368985
0.00360199
0.00349673
0.00333684
0.00314985
0.00297905
0.00287407
0.00284919
0.00291513
0.00304759
0.0032038
0.00337331
0.0035963
0.00386024
0.004138
0.00437413
0.0045795
0.00422776
0.00440456
0.0045389
0.00461212
0.00462849
0.00458738
0.0044911
0.00439507
0.00428601
0.00417902
0.00408432
0.00399447
0.00389782
0.00380213
0.00370315
0.0035712
0.0033916
0.0031849
0.00298901
0.00284761
0.00278785
0.00282821
0.00295233
0.00310659
0.00327309
0.00349316
0.00375909
0.00404406
0.00430138
0.00454888
0.0041319
0.00432752
0.00449094
0.00459893
0.0046384
0.00461592
0.00454684
0.00446371
0.00436779
0.00427411
0.0041842
0.00409424
0.00399537
0.00389067
0.00377001
0.00361448
0.00341982
0.00319895
0.00298395
0.00281351
0.00272237
0.00273893
0.00284838
0.00300381
0.00317095
0.00338954
0.00365315
0.00394051
0.00421264
0.00448659
0.00402437
0.0042405
0.00443109
0.00456922
0.00463555
0.00464067
0.0045924
0.0045257
0.00444236
0.00435458
0.00426433
0.00416836
0.00405693
0.00393282
0.00378809
0.00361415
0.00340971
0.00318146
0.00295609
0.0027665
0.0026501
0.00264456
0.00274456
0.00289969
0.00307223
0.00328971
0.00354804
0.00383281
0.00411354
0.00439962
0.00391499
0.00415042
0.00436248
0.00451612
0.00459959
0.00463868
0.00460903
0.00455343
0.00447797
0.0043909
0.00429404
0.00418518
0.00405527
0.00390816
0.0037397
0.003553
0.00334482
0.00311798
0.00289379
0.00269781
0.00256489
0.00254212
0.00264061
0.00279706
0.00297612
0.00319427
0.00344626
0.00372446
0.00400584
0.00429456
0.00381114
0.00405596
0.00426657
0.00442922
0.00454828
0.00460418
0.00458734
0.00453564
0.00445899
0.00436364
0.00425147
0.00412156
0.00396725
0.00379519
0.00360536
0.00341255
0.00320926
0.00299487
0.00278496
0.00259725
0.00245989
0.00242444
0.00252821
0.00270614
0.00289621
0.00311438
0.00336105
0.00362851
0.00390266
0.00418085
0.00370099
0.00393673
0.00414538
0.00433345
0.00446517
0.00452085
0.00450437
0.00444695
0.004359
0.00424413
0.00410678
0.00394966
0.00377026
0.00357749
0.00337471
0.00318635
0.00300121
0.00281188
0.00262991
0.00246446
0.0023345
0.0022897
0.00239314
0.00260932
0.00281656
0.00304168
0.00328977
0.00355192
0.00381731
0.00407462
0.00357549
0.00380867
0.00402177
0.00420034
0.00432171
0.00435604
0.00432508
0.00424931
0.00413883
0.00399921
0.00383555
0.00365412
0.00346299
0.00326768
0.00307357
0.00290794
0.00275642
0.00260446
0.00246018
0.00232506
0.00220975
0.00215425
0.00224116
0.00247636
0.00270756
0.00294008
0.00318977
0.00344674
0.00370038
0.00393459
0.00343793
0.00365065
0.00383225
0.00398047
0.00406197
0.0040596
0.0040005
0.0039013
0.00377204
0.00362027
0.00345274
0.00327692
0.00310436
0.00294193
0.00279099
0.00266912
0.00256149
0.00245183
0.00234463
0.00223781
0.00213624
0.00206656
0.00210823
0.00229992
0.0025338
0.00277298
0.0030252
0.0032821
0.00352953
0.00374599
0.00319875
0.00337617
0.00350832
0.00360148
0.00363607
0.00360322
0.00353234
0.00343567
0.00332172
0.00319787
0.00307072
0.00294687
0.00283245
0.00273021
0.00264127
0.00256922
0.00249925
0.00242302
0.00234318
0.00225765
0.00216764
0.0020876
0.00207047
0.00216218
0.00232726
0.00253214
0.00275819
0.00299608
0.00322925
0.00343347
0.00284723
0.00297017
0.00305817
0.00311878
0.00314202
0.00312289
0.00308593
0.00303652
0.00297815
0.00291593
0.00285489
0.00279887
0.00274696
0.00269088
0.00263861
0.00259254
0.00254304
0.00249007
0.00243142
0.00236573
0.00229249
0.00222118
0.00217941
0.00220041
0.00227941
0.00239307
0.00252969
0.00268454
0.00284818
0.00300597
0.0026477
0.00272376
0.00278747
0.00284
0.00287357
0.00288477
0.00288722
0.00288053
0.00286472
0.00284367
0.00281476
0.00278583
0.00275383
0.00271963
0.00268406
0.00264567
0.0026078
0.00257031
0.00253096
0.00248928
0.0024434
0.00239916
0.00237132
0.00238334
0.00243109
0.00249199
0.00255696
0.00262382
0.00269362
0.00275587
0.00272256
0.00276432
0.00279624
0.00282144
0.00283684
0.00284191
0.00284108
0.00283394
0.00282027
0.00280691
0.00279148
0.00277405
0.00274961
0.0027215
0.00269195
0.00266571
0.00264472
0.00262887
0.00261307
0.0025986
0.00258429
0.00257099
0.00256336
0.00258209
0.00261767
0.00265271
0.00268269
0.00270742
0.00273166
0.00275434
0.000259073
0.000262208
0.000253806
0.000242834
0.000230041
0.000216355
0.000202408
0.000188637
0.000175142
0.000162204
0.000149661
0.000137963
0.000126287
0.000117041
0.000110808
0.000108509
0.000111623
0.000127868
0.000139722
0.000147775
0.00015121
0.000151385
0.000159881
0.000167788
0.000172957
0.000176418
0.000179367
0.00018082
0.000185289
0.000192401
0.00127556
0.00139386
0.00131778
0.00117822
0.00103633
0.000911437
0.000805073
0.000714469
0.000635532
0.000567259
0.000503599
0.000437561
0.000386115
0.000412207
0.000483274
0.000559682
0.00062934
0.000730539
0.000823577
0.000882215
0.000902672
0.00091324
0.000932114
0.000949446
0.000960106
0.000956031
0.000938698
0.000893561
0.000825075
0.000786515
0.00216805
0.00242345
0.00236362
0.00218646
0.00196989
0.00175738
0.001564
0.00139241
0.00123968
0.00110634
0.000983023
0.000857648
0.000765857
0.000819438
0.00093966
0.00105618
0.00116967
0.00133663
0.00150217
0.00162021
0.00167613
0.00170917
0.00174905
0.00178366
0.00179901
0.00179262
0.00176212
0.00167737
0.00154778
0.00148518
0.00289267
0.00320233
0.00318176
0.00301271
0.00277057
0.00251017
0.00225812
0.00202502
0.0018128
0.0016268
0.00145602
0.00128198
0.00116982
0.001242
0.0013858
0.00151885
0.00165625
0.00186795
0.00208444
0.00225474
0.00235276
0.00241278
0.00247488
0.0025281
0.00255241
0.0025424
0.00250224
0.00240102
0.00224014
0.00216775
0.00351293
0.00382006
0.00383243
0.00368325
0.00343816
0.00315384
0.00286417
0.00258715
0.00233082
0.00210421
0.00189735
0.00169963
0.00158051
0.00166185
0.0018098
0.00194469
0.00209239
0.00233191
0.00257983
0.0027932
0.00293282
0.00302348
0.00310836
0.00317864
0.00322083
0.00321617
0.00317208
0.00306171
0.00288932
0.00281174
0.00404185
0.00432846
0.00436406
0.00423583
0.00399787
0.00370364
0.00339088
0.00308392
0.00279645
0.00254071
0.00231197
0.00210784
0.00199106
0.00207249
0.00220971
0.00233644
0.00248773
0.00273505
0.00300151
0.00324694
0.00342461
0.00354613
0.00365358
0.00374041
0.00379824
0.00381404
0.00378561
0.00367245
0.00348928
0.00340671
0.00449393
0.00475843
0.00480658
0.00469718
0.00447111
0.00417556
0.00385028
0.00352468
0.00321715
0.0029459
0.00270385
0.0025057
0.00239606
0.00246949
0.00258555
0.0026976
0.00284703
0.00308907
0.00336388
0.00363372
0.00384014
0.00398775
0.00411323
0.00421754
0.00429233
0.00432688
0.00432165
0.00422992
0.00404649
0.00396011
0.00488433
0.0051236
0.00517673
0.00508441
0.00487339
0.00458209
0.00425266
0.00391793
0.00360047
0.00332227
0.00307975
0.00289094
0.00279054
0.00284909
0.00293799
0.00303209
0.00317771
0.0034082
0.0036821
0.00396322
0.00419404
0.00435883
0.00449412
0.0046144
0.00470671
0.00476358
0.00477929
0.00471615
0.00454657
0.00445768
0.00522392
0.00545106
0.00550508
0.0054184
0.00521509
0.00493166
0.00460561
0.00427048
0.00395212
0.00367455
0.00344099
0.00326005
0.00317054
0.00320812
0.00326884
0.00334385
0.00348062
0.0036932
0.00395956
0.00425499
0.00449983
0.00467409
0.00481013
0.00493581
0.00504753
0.00512578
0.00516571
0.00513599
0.00499353
0.0049028
0.0055455
0.00575837
0.00580613
0.00571859
0.00551781
0.00523749
0.0049135
0.00458677
0.00427647
0.00400638
0.00378472
0.00361723
0.00352923
0.00354554
0.00357924
0.00363691
0.00375516
0.00394373
0.004202
0.00451022
0.00476879
0.00495349
0.00509312
0.00521615
0.00532645
0.00541944
0.00548037
0.00548775
0.00538418
0.00530235
0.00583876
0.00603089
0.00607822
0.00599344
0.00579131
0.00551416
0.00519454
0.00487252
0.00457651
0.00431979
0.00411112
0.00395791
0.00386661
0.00386084
0.00387085
0.00391437
0.00400284
0.00415982
0.00440576
0.00470417
0.00496483
0.00516183
0.00530382
0.00542594
0.0055406
0.00565196
0.00572419
0.00575967
0.00571681
0.0056613
0.00606486
0.00624388
0.00629848
0.00623189
0.00604323
0.00576796
0.00545354
0.00513996
0.004857
0.00461598
0.00442046
0.00427883
0.00418543
0.00415754
0.00414556
0.00417168
0.00422424
0.00434224
0.00456506
0.00482598
0.00508661
0.00530124
0.00545557
0.00558266
0.00570348
0.00582643
0.0059221
0.00597568
0.00596357
0.00594938
0.00623993
0.00641638
0.00647995
0.00642789
0.00626097
0.00600464
0.00569473
0.00539211
0.00512109
0.00489624
0.00471349
0.00457963
0.00448313
0.00443576
0.00440627
0.004405
0.00441879
0.00449199
0.00466999
0.00490042
0.00515758
0.00538838
0.00555507
0.00568937
0.00581826
0.00595496
0.00607239
0.00615138
0.00617847
0.00619687
0.00637342
0.00655514
0.00663181
0.00659527
0.00644651
0.00621243
0.00592214
0.00563137
0.00537402
0.00516283
0.00499097
0.00486169
0.00476151
0.00469686
0.0046534
0.0046151
0.00458426
0.00460974
0.00473253
0.00493169
0.0051788
0.00542123
0.00560266
0.00574835
0.00588804
0.00604083
0.00618038
0.00628977
0.00635277
0.00641222
0.00647068
0.00666462
0.00675748
0.00673704
0.00661057
0.00639681
0.00612862
0.00585937
0.00561658
0.00541778
0.00525412
0.005127
0.0050217
0.00494248
0.00488049
0.00479993
0.00471978
0.00469454
0.00475841
0.00492003
0.0051512
0.00539999
0.00559974
0.00576201
0.00591594
0.00608715
0.00625086
0.00639319
0.00648946
0.00658447
0.00653802
0.00674929
0.00685927
0.00685583
0.00675474
0.0065614
0.00631934
0.00607742
0.00584825
0.00566244
0.0055041
0.00537687
0.00526468
0.00517231
0.00507812
0.00495453
0.00482578
0.00474254
0.00474717
0.00486569
0.00507588
0.00532762
0.0055488
0.00573294
0.00590473
0.00609646
0.00628654
0.0064633
0.00659221
0.00672109
0.00658566
0.00681364
0.00693801
0.00695348
0.00688165
0.00671234
0.0065035
0.00628536
0.00607149
0.00589635
0.00574085
0.00561059
0.00548726
0.00537494
0.00524047
0.00507246
0.00489514
0.00475334
0.00470156
0.00476649
0.0049543
0.00520723
0.00545261
0.00566368
0.00585638
0.00607108
0.00628971
0.00650085
0.0066665
0.00682818
0.00661606
0.00685816
0.00699923
0.00703668
0.00699303
0.00685301
0.00668127
0.00647831
0.00628505
0.00611699
0.00596083
0.00582148
0.00568127
0.00553387
0.00535764
0.00514368
0.00491819
0.00472328
0.00461295
0.00462589
0.00478512
0.00504097
0.0053136
0.00555559
0.00577286
0.00601398
0.00626299
0.00650769
0.00671122
0.00691285
0.00662663
0.0068765
0.00703877
0.00710955
0.00709435
0.00699347
0.00683848
0.00666182
0.00648265
0.00631605
0.00615303
0.00599447
0.00582335
0.00563476
0.00541406
0.0051543
0.00488353
0.00464108
0.00447903
0.00444459
0.00457061
0.00482822
0.00513288
0.00540869
0.00565737
0.00592787
0.00620693
0.00648451
0.00672616
0.00696994
0.00661316
0.00686707
0.00705988
0.00716264
0.00716769
0.00711224
0.00697764
0.00681227
0.00664017
0.0064688
0.00628996
0.00610279
0.00589197
0.00565732
0.00538884
0.00508719
0.00477792
0.00449604
0.00429276
0.00421662
0.00431184
0.00456953
0.00490946
0.0052244
0.00551312
0.00581286
0.00612156
0.00643093
0.00671014
0.00699491
0.00656646
0.00683908
0.00705229
0.00717749
0.00723005
0.00718657
0.00706527
0.00690612
0.00673147
0.00654718
0.00634392
0.00611984
0.00586306
0.00557822
0.00526241
0.00492616
0.00458991
0.00428037
0.00404967
0.00394076
0.00400718
0.00426492
0.00463848
0.00501646
0.00534397
0.00566878
0.00600466
0.00634395
0.00666081
0.00697817
0.00648622
0.00677441
0.00699481
0.00712988
0.00721978
0.00719345
0.00707594
0.0069128
0.00672492
0.00651748
0.00628334
0.00601572
0.00571132
0.00537928
0.0050215
0.00466475
0.0043175
0.0039969
0.00375509
0.00362334
0.00366041
0.00391575
0.0043245
0.00475002
0.00512949
0.00550265
0.00587129
0.00623384
0.0065774
0.00691058
0.00634813
0.00662885
0.00685215
0.00702967
0.00712872
0.00709797
0.00697072
0.00679151
0.00658002
0.00634186
0.00607331
0.00576673
0.0054225
0.00505681
0.00467447
0.00431874
0.00398144
0.00367181
0.00343476
0.00328985
0.00329344
0.00352378
0.00397438
0.00444169
0.00486442
0.0052753
0.00568202
0.00607919
0.00645679
0.0067998
0.00611189
0.0064053
0.00665008
0.00682292
0.0069073
0.00685138
0.00670169
0.00649788
0.00625913
0.00599244
0.00569747
0.00536944
0.00501146
0.00464034
0.00426562
0.00393786
0.00363665
0.00335741
0.00314502
0.00300603
0.00297362
0.00313277
0.0035712
0.0040722
0.0045253
0.00496293
0.00539734
0.00582112
0.00622162
0.00656654
0.00580095
0.00608885
0.00630526
0.00645186
0.00649375
0.00640232
0.00622797
0.00600493
0.005752
0.00547764
0.0051836
0.00486772
0.00453619
0.00420334
0.00387809
0.00360304
0.00335282
0.00313533
0.00296474
0.00283671
0.00277297
0.00284185
0.00317526
0.0036349
0.00409066
0.0045363
0.00498578
0.00542855
0.00584689
0.00619825
0.00531701
0.00557861
0.00575462
0.00585154
0.00585
0.00573554
0.00555863
0.00534651
0.00511595
0.00487463
0.00462453
0.0043647
0.00410153
0.00384243
0.00359432
0.00338784
0.00320437
0.00304352
0.00290829
0.00279479
0.00271549
0.00271474
0.00289267
0.00321852
0.00359719
0.00400083
0.00442558
0.00485667
0.0052736
0.00562992
0.00463604
0.00485738
0.00498641
0.00505162
0.00504186
0.00494795
0.00481492
0.00466088
0.00449732
0.00432944
0.00415773
0.00398129
0.00380338
0.00361831
0.00344928
0.00330448