/*--------------------------------*- C++ -*----------------------------------*\
| =========                 |                                                 |
| \\      /  F ield         | OpenFOAM: The Open Source CFD Toolbox           |
|  \\    /   O peration     | Version:  5.0                                   |
|   \\  /    A nd           | Web:      www.OpenFOAM.org                      |
|    \\/     M anipulation  |                                                 |
\*---------------------------------------------------------------------------*/
FoamFile
{
    version     2.0;
    format      ascii;
    class       surfaceScalarField;
    location    "350/porous";
    object      phi;
}
// * * * * * * * * * * * * * * * * * * * * * * * * * * * * * * * * * * * * * //

dimensions      [1 0 -1 0 0 0 0];

internalField   nonuniform List<scalar> 
104700
(
7.63469e-05
2.58379e-06
8.7736e-05
4.58797e-05
1.53403e-06
2.89331e-05
3.349e-05
1.32405e-06
1.10657e-05
2.82039e-05
1.09915e-06
4.18698e-06
2.50882e-05
9.25619e-07
2.19001e-06
2.29209e-05
7.95643e-07
1.37166e-06
2.12657e-05
6.9608e-07
9.59129e-07
1.99381e-05
6.17638e-07
7.10016e-07
1.88402e-05
5.53769e-07
5.44131e-07
1.79117e-05
5.00404e-07
4.28084e-07
1.71129e-05
4.54876e-07
3.43889e-07
1.64163e-05
4.15386e-07
2.81187e-07
1.58021e-05
3.80676e-07
2.33552e-07
1.52555e-05
3.49838e-07
1.96797e-07
1.47652e-05
3.22197e-07
1.68084e-07
1.43225e-05
2.97242e-07
1.45431e-07
1.39205e-05
2.74578e-07
1.27416e-07
1.35536e-05
2.53892e-07
1.12997e-07
1.32173e-05
2.34936e-07
1.01392e-07
1.29078e-05
2.17507e-07
9.20138e-08
1.26219e-05
2.01437e-07
8.44043e-08
1.23571e-05
1.86587e-07
7.82118e-08
1.21112e-05
1.72839e-07
7.31583e-08
1.1882e-05
1.60091e-07
6.90257e-08
1.16681e-05
1.48255e-07
6.56365e-08
1.1468e-05
1.37255e-07
6.28524e-08
1.12805e-05
1.27025e-07
6.05574e-08
1.11043e-05
1.17502e-07
5.86594e-08
1.09386e-05
1.08644e-07
5.70822e-08
1.07824e-05
1.00386e-07
5.57641e-08
1.0635e-05
9.27428e-08
5.4637e-08
1.04958e-05
8.55407e-08
5.36914e-08
1.03639e-05
7.91237e-08
5.27883e-08
1.02393e-05
7.24729e-08
5.21629e-08
1.012e-05
6.81534e-08
5.10634e-08
1.00092e-05
5.92666e-08
5.15385e-08
9.89806e-06
6.32467e-08
4.79266e-08
9.80277e-06
3.56116e-08
5.9676e-08
9.70016e-06
7.96887e-08
2.29247e-08
-2.60964e-08
3.18052e-07
7.78123e-05
1.68802e-06
8.97501e-05
4.84263e-05
1.30124e-06
2.96188e-05
3.67847e-05
1.23874e-06
1.17269e-05
3.20157e-05
1.08313e-06
4.78499e-06
2.9323e-05
9.49937e-07
2.66843e-06
2.74966e-05
8.41374e-07
1.78063e-06
2.61194e-05
7.5101e-07
1.32234e-06
2.50213e-05
6.75267e-07
1.04048e-06
2.41151e-05
6.10633e-07
8.49259e-07
2.33484e-05
5.54652e-07
7.1252e-07
2.26869e-05
5.05546e-07
6.10776e-07
2.21076e-05
4.62015e-07
5.32744e-07
2.15937e-05
4.23087e-07
4.71409e-07
2.11333e-05
3.88025e-07
4.22202e-07
2.07173e-05
3.56252e-07
3.82026e-07
2.03385e-05
3.27317e-07
3.48722e-07
1.99914e-05
3.00857e-07
3.20742e-07
1.96718e-05
2.76577e-07
2.9695e-07
1.9376e-05
2.54236e-07
2.76502e-07
1.91011e-05
2.33633e-07
2.5875e-07
1.88448e-05
2.14599e-07
2.43201e-07
1.86049e-05
1.9699e-07
2.29465e-07
1.83798e-05
1.80681e-07
2.17238e-07
1.81681e-05
1.65564e-07
2.06276e-07
1.79684e-05
1.51545e-07
1.9638e-07
1.77797e-05
1.3854e-07
1.87392e-07
1.76011e-05
1.26478e-07
1.79182e-07
1.74317e-05
1.15291e-07
1.71638e-07
1.72707e-05
1.0493e-07
1.64672e-07
1.71176e-05
9.53291e-08
1.58203e-07
1.69716e-05
8.6504e-08
1.52172e-07
1.68324e-05
7.82709e-08
1.46501e-07
1.66993e-05
7.1001e-08
1.41189e-07
1.65721e-05
6.35862e-08
1.36068e-07
1.645e-05
5.88448e-08
1.31426e-07
1.63339e-05
4.89014e-08
1.26513e-07
1.62197e-05
5.44704e-08
1.22961e-07
1.61161e-05
1.84098e-08
1.20782e-07
1.60076e-05
8.89505e-08
9.9248e-08
-1.08952e-07
3.45194e-07
7.76222e-05
1.22991e-06
8.95025e-05
4.84082e-05
1.23644e-06
2.92788e-05
3.69389e-05
1.20918e-06
1.14989e-05
3.23082e-05
1.07743e-06
4.63645e-06
2.97455e-05
9.49173e-07
2.56345e-06
2.80398e-05
8.39594e-07
1.70742e-06
2.67759e-05
7.46495e-07
1.26841e-06
2.5785e-05
6.68119e-07
9.98028e-07
2.49806e-05
6.01613e-07
8.13427e-07
2.43105e-05
5.44571e-07
6.80248e-07
2.37408e-05
4.95076e-07
5.80163e-07
2.32485e-05
4.5165e-07
5.02615e-07
2.28174e-05
4.13161e-07
4.41067e-07
2.24354e-05
3.78739e-07
3.9125e-07
2.20937e-05
3.47712e-07
3.50267e-07
2.17854e-05
3.19556e-07
3.16088e-07
2.15051e-05
2.93858e-07
2.87251e-07
2.12487e-05
2.70293e-07
2.62672e-07
2.10128e-05
2.48598e-07
2.41535e-07
2.07947e-05
2.2856e-07
2.23216e-07
2.05921e-05
2.10007e-07
2.07225e-07
2.04031e-05
1.92793e-07
1.93175e-07
2.02262e-05
1.76798e-07
1.8076e-07
2.00601e-05
1.6192e-07
1.6973e-07
1.99037e-05
1.48071e-07
1.59879e-07
1.9756e-05
1.35175e-07
1.5104e-07
1.96163e-05
1.23169e-07
1.43074e-07
1.94837e-05
1.11996e-07
1.35864e-07
1.93577e-05
1.01617e-07
1.2931e-07
1.92377e-05
9.19737e-08
1.23328e-07
1.91233e-05
8.30928e-08
1.1785e-07
1.9014e-05
7.48024e-08
1.12798e-07
1.89093e-05
6.74785e-08
1.08158e-07
1.88091e-05
6.00392e-08
1.03776e-07
1.87128e-05
5.52527e-08
9.98983e-08
1.86205e-05
4.54164e-08
9.57536e-08
1.85308e-05
5.07688e-08
9.34646e-08
1.84463e-05
1.51505e-08
8.77625e-08
1.83607e-05
8.63554e-08
8.81447e-08
-1.22555e-07
1.98196e-07
7.73814e-05
8.69141e-07
8.96461e-05
4.81319e-05
1.03757e-06
2.94483e-05
3.66931e-05
1.04579e-06
1.16023e-05
3.21097e-05
9.57493e-07
4.70331e-06
2.95979e-05
8.57848e-07
2.60315e-06
2.79412e-05
7.66352e-07
1.72993e-06
2.67235e-05
6.85063e-07
1.27908e-06
2.57762e-05
6.14509e-07
1.00093e-06
2.50129e-05
5.53423e-07
8.11467e-07
2.43818e-05
5.00329e-07
6.75354e-07
2.38494e-05
4.5387e-07
5.73609e-07
2.33929e-05
4.12902e-07
4.95229e-07
2.29962e-05
3.76493e-07
4.33366e-07
2.26475e-05
3.43895e-07
3.83547e-07
2.2338e-05
3.14512e-07
3.42738e-07
2.20609e-05
2.87866e-07
3.08819e-07
2.18109e-05
2.63574e-07
2.80265e-07
2.15839e-05
2.41327e-07
2.55958e-07
2.13766e-05
2.20876e-07
2.35059e-07
2.11862e-05
2.02017e-07
2.1693e-07
2.10105e-05
1.84581e-07
2.01077e-07
2.08478e-05
1.68429e-07
1.87114e-07
2.06964e-05
1.53445e-07
1.74732e-07
2.05551e-05
1.39528e-07
1.63686e-07
2.04228e-05
1.26596e-07
1.53777e-07
2.02986e-05
1.14575e-07
1.44841e-07
2.01816e-05
1.03406e-07
1.36743e-07
2.00712e-05
9.30354e-08
1.29373e-07
1.99667e-05
8.34281e-08
1.22638e-07
1.98677e-05
7.45306e-08
1.16456e-07
1.97737e-05
6.63724e-08
1.10766e-07
1.96842e-05
5.87949e-08
1.05497e-07
1.95988e-05
5.21592e-08
1.00632e-07
1.95174e-05
4.54647e-08
9.60455e-08
1.94394e-05
4.13042e-08
9.19207e-08
1.93646e-05
3.26519e-08
8.76063e-08
1.92923e-05
3.79641e-08
8.5023e-08
1.92228e-05
7.51678e-09
7.71932e-08
1.91504e-05
7.1067e-08
8.7707e-08
-1.0072e-07
1.00199e-07
7.72584e-05
6.76336e-07
8.96011e-05
4.79939e-05
9.27346e-07
2.93747e-05
3.65735e-05
9.71905e-07
1.14944e-05
3.20109e-05
9.16791e-07
4.6033e-06
2.95174e-05
8.35222e-07
2.51607e-06
2.78758e-05
7.5205e-07
1.65594e-06
2.66708e-05
6.7422e-07
1.2158e-06
2.57347e-05
6.0465e-07
9.45995e-07
2.49817e-05
5.43508e-07
7.62925e-07
2.43603e-05
4.90044e-07
6.31637e-07
2.38374e-05
4.43242e-07
5.3352e-07
2.33904e-05
4.02096e-07
4.57868e-07
2.30031e-05
3.6571e-07
3.98066e-07
2.26638e-05
3.33326e-07
3.49814e-07
2.23638e-05
3.04314e-07
3.10219e-07
2.20963e-05
2.78162e-07
2.77252e-07
2.18559e-05
2.54451e-07
2.49464e-07
2.16386e-05
2.32844e-07
2.25793e-07
2.1441e-05
2.13066e-07
2.05438e-07
2.12603e-05
1.94892e-07
1.87791e-07
2.10944e-05
1.78138e-07
1.72379e-07
2.09413e-05
1.62654e-07
1.58832e-07
2.07996e-05
1.48315e-07
1.46852e-07
2.06679e-05
1.35015e-07
1.36202e-07
2.05452e-05
1.22666e-07
1.26688e-07
2.04304e-05
1.11194e-07
1.18149e-07
2.03228e-05
1.0054e-07
1.10456e-07
2.02217e-05
9.06485e-08
1.03496e-07
2.01265e-05
8.14869e-08
9.71781e-08
2.00366e-05
7.30053e-08
9.14248e-08
1.99515e-05
6.52321e-08
8.61696e-08
1.9871e-05
5.8026e-08
8.13484e-08
1.97945e-05
5.17207e-08
7.69331e-08
1.97217e-05
4.54376e-08
7.28278e-08
1.96523e-05
4.14856e-08
6.91326e-08
1.95858e-05
3.38467e-08
6.54006e-08
1.95224e-05
3.82082e-08
6.31037e-08
1.94608e-05
1.40326e-08
5.51224e-08
1.93957e-05
6.44185e-08
7.16676e-08
-5.99809e-08
2.76301e-08
7.71839e-05
5.19234e-07
8.96399e-05
4.78783e-05
7.76906e-07
2.9456e-05
3.64421e-05
8.3619e-07
1.1572e-05
3.18787e-05
8.04959e-07
4.67516e-06
2.93914e-05
7.43187e-07
2.57942e-06
2.77584e-05
6.74628e-07
1.71039e-06
2.65629e-05
6.07811e-07
1.26191e-06
2.56361e-05
5.46583e-07
9.84848e-07
2.48919e-05
4.91929e-07
7.95748e-07
2.42788e-05
4.43663e-07
6.59542e-07
2.37634e-05
4.01152e-07
5.57446e-07
2.33233e-05
3.63639e-07
4.78581e-07
2.29424e-05
3.30399e-07
4.16183e-07
2.26091e-05
3.00786e-07
3.65826e-07
2.23147e-05
2.74252e-07
3.24502e-07
2.20524e-05
2.50337e-07
2.90107e-07
2.18171e-05
2.28665e-07
2.61122e-07
2.16046e-05
2.08927e-07
2.36433e-07
2.14116e-05
1.90873e-07
2.15202e-07
2.12354e-05
1.74294e-07
1.96788e-07
2.10738e-05
1.59023e-07
1.80694e-07
2.0925e-05
1.44919e-07
1.66532e-07
2.07875e-05
1.31866e-07
1.5399e-07
2.06599e-05
1.19769e-07
1.42818e-07
2.05412e-05
1.08546e-07
1.32817e-07
2.04304e-05
9.81303e-08
1.23819e-07
2.03268e-05
8.84663e-08
1.15688e-07
2.02296e-05
7.95057e-08
1.08309e-07
2.01383e-05
7.12197e-08
1.01591e-07
2.00523e-05
6.35651e-08
9.54486e-08
1.99712e-05
5.65703e-08
8.98177e-08
1.98944e-05
5.01162e-08
8.46356e-08
1.98218e-05
4.45046e-08
7.98631e-08
1.97528e-05
3.89987e-08
7.54346e-08
1.96873e-05
3.55895e-08
7.13597e-08
1.96244e-05
2.93726e-08
6.73982e-08
1.95649e-05
3.31379e-08
6.4524e-08
1.95073e-05
1.55985e-08
5.61257e-08
1.94431e-05
5.47025e-08
7.38851e-08
-2.76122e-08
2.56078e-09
7.71344e-05
4.18799e-07
8.96327e-05
4.78011e-05
6.65806e-07
2.94444e-05
3.63597e-05
7.38728e-07
1.15389e-05
3.18013e-05
7.28504e-07
4.63483e-06
2.93215e-05
6.84088e-07
2.53887e-06
2.76961e-05
6.27792e-07
1.67223e-06
2.65073e-05
5.69486e-07
1.22714e-06
2.55861e-05
5.14088e-07
9.53663e-07
2.48466e-05
4.63518e-07
7.6797e-07
2.42372e-05
4.18245e-07
6.34799e-07
2.3725e-05
3.78059e-07
5.3532e-07
2.32875e-05
3.42468e-07
4.58663e-07
2.29089e-05
3.10906e-07
3.98102e-07
2.25776e-05
2.82818e-07
3.49261e-07
2.22849e-05
2.57707e-07
3.09187e-07
2.20243e-05
2.35142e-07
2.75821e-07
2.17905e-05
2.14761e-07
2.47686e-07
2.15795e-05
1.96261e-07
2.23702e-07
2.13879e-05
1.79392e-07
2.03058e-07
2.12131e-05
1.63948e-07
1.85139e-07
2.10529e-05
1.4976e-07
1.69468e-07
2.09055e-05
1.36686e-07
1.5567e-07
2.07693e-05
1.24611e-07
1.43447e-07
2.0643e-05
1.13439e-07
1.3256e-07
2.05257e-05
1.03088e-07
1.22815e-07
2.04163e-05
9.34927e-08
1.14052e-07
2.0314e-05
8.45979e-08
1.06142e-07
2.02182e-05
7.63577e-08
9.89731e-08
2.01282e-05
6.87433e-08
9.24514e-08
2.00435e-05
6.17167e-08
8.65028e-08
1.99638e-05
5.53032e-08
8.10601e-08
1.98884e-05
4.94046e-08
7.60649e-08
1.98172e-05
4.4285e-08
7.14701e-08
1.97496e-05
3.9351e-08
6.72378e-08
1.96856e-05
3.62556e-08
6.33118e-08
1.96242e-05
3.11627e-08
5.96255e-08
1.95665e-05
3.40626e-08
5.6751e-08
1.95115e-05
2.17684e-08
4.87922e-08
1.94493e-05
5.06117e-08
6.63504e-08
-1.73453e-09
-1.68139e-08
7.71072e-05
3.33323e-07
8.9645e-05
4.77479e-05
5.50838e-07
2.94742e-05
3.62918e-05
6.23614e-07
1.15713e-05
3.17276e-05
6.24066e-07
4.6686e-06
2.92469e-05
5.91961e-07
2.57284e-06
2.76232e-05
5.46644e-07
1.70482e-06
2.64375e-05
4.97717e-07
1.25747e-06
2.55201e-05
4.50164e-07
9.8138e-07
2.47843e-05
4.06178e-07
7.93048e-07
2.41787e-05
3.66494e-07
6.57388e-07
2.367e-05
3.31118e-07
5.55649e-07
2.32357e-05
2.99725e-07
4.76991e-07
2.28601e-05
2.71867e-07
4.14685e-07
2.25315e-05
2.47081e-07
3.64338e-07
2.22413e-05
2.24938e-07
3.22969e-07
2.19829e-05
2.05059e-07
2.8849e-07
2.17511e-05
1.87121e-07
2.59401e-07
2.15419e-05
1.70855e-07
2.34593e-07
2.13521e-05
1.56036e-07
2.13239e-07
2.11788e-05
1.42479e-07
1.94698e-07
2.10201e-05
1.30033e-07
1.78483e-07
2.0874e-05
1.18571e-07
1.64201e-07
2.07391e-05
1.07991e-07
1.51547e-07
2.0614e-05
9.82068e-08
1.40271e-07
2.04978e-05
8.91467e-08
1.30172e-07
2.03895e-05
8.07522e-08
1.21083e-07
2.02882e-05
7.29763e-08
1.12868e-07
2.01934e-05
6.57789e-08
1.05415e-07
2.01043e-05
5.91369e-08
9.86259e-08
2.00206e-05
5.30185e-08
9.24223e-08
1.99417e-05
4.74483e-08
8.67347e-08
1.98673e-05
4.23508e-08
8.15082e-08
1.97969e-05
3.79526e-08
7.66805e-08
1.97303e-05
3.37971e-08
7.22394e-08
1.96672e-05
3.12236e-08
6.80677e-08
1.96068e-05
2.73397e-08
6.42347e-08
1.95501e-05
2.97642e-08
6.09629e-08
1.94971e-05
2.18049e-08
5.30071e-08
1.94344e-05
4.35553e-08
6.9713e-08
1.1879e-08
-1.91383e-08
7.70866e-05
2.69007e-07
8.96444e-05
4.77072e-05
4.56066e-07
2.94742e-05
3.62416e-05
5.26899e-07
1.15623e-05
3.16757e-05
5.36106e-07
4.65386e-06
2.91969e-05
5.15226e-07
2.55554e-06
2.75768e-05
4.80367e-07
1.68639e-06
2.63951e-05
4.40407e-07
1.23897e-06
2.54816e-05
4.00232e-07
9.63466e-07
2.47494e-05
3.62255e-07
7.76107e-07
2.41468e-05
3.27491e-07
6.416e-07
2.36407e-05
2.96198e-07
5.41064e-07
2.32086e-05
2.68254e-07
4.63577e-07
2.28347e-05
2.43365e-07
4.02365e-07
2.25076e-05
2.21179e-07
3.53015e-07
2.22186e-05
2.01348e-07
3.12538e-07
2.19613e-05
1.83553e-07
2.78851e-07
2.17304e-05
1.67513e-07
2.50457e-07
2.15221e-05
1.52988e-07
2.2626e-07
2.13329e-05
1.39778e-07
2.05436e-07
2.11603e-05
1.27715e-07
1.87363e-07
2.10021e-05
1.16659e-07
1.71556e-07
2.08565e-05
1.06495e-07
1.57635e-07
2.07221e-05
9.71268e-08
1.45301e-07
2.05975e-05
8.84752e-08
1.34309e-07
2.04817e-05
8.04745e-08
1.24465e-07
2.03738e-05
7.307e-08
1.15606e-07
2.0273e-05
6.6218e-08
1.07601e-07
2.01785e-05
5.98823e-08
1.00341e-07
2.00899e-05
5.40412e-08
9.3731e-08
2.00065e-05
4.86681e-08
8.76941e-08
1.9928e-05
4.37833e-08
8.21624e-08
1.9854e-05
3.93301e-08
7.70863e-08
1.9784e-05
3.54961e-08
7.23981e-08
1.97178e-05
3.19408e-08
6.81048e-08
1.96552e-05
2.9717e-08
6.40435e-08
1.95955e-05
2.67042e-08
6.04025e-08
1.95396e-05
2.85434e-08
5.7144e-08
1.94883e-05
2.34728e-08
4.95971e-08
1.94268e-05
3.92833e-08
6.57721e-08
2.03155e-08
-2.56398e-08
7.7075e-05
2.11936e-07
8.96488e-05
4.76803e-05
3.65207e-07
2.94855e-05
3.62044e-05
4.27615e-07
1.15751e-05
3.16333e-05
4.39349e-07
4.66786e-06
2.91524e-05
4.25255e-07
2.57086e-06
2.75322e-05
3.98263e-07
1.70232e-06
2.63516e-05
3.66073e-07
1.25491e-06
2.54398e-05
3.33062e-07
9.79004e-07
2.47096e-05
3.01508e-07
7.9096e-07
2.4109e-05
2.72444e-07
6.55609e-07
2.36049e-05
2.46202e-07
5.54153e-07
2.31747e-05
2.22743e-07
4.75738e-07
2.28025e-05
2.01853e-07
4.13628e-07
2.2477e-05
1.83251e-07
3.63433e-07
2.21896e-05
1.66646e-07
3.22178e-07
2.19336e-05
1.51769e-07
2.87782e-07
2.17039e-05
1.38378e-07
2.58751e-07
2.14967e-05
1.26271e-07
2.33983e-07
2.13085e-05
1.15272e-07
2.12651e-07
2.11369e-05
1.05238e-07
1.94126e-07
2.09796e-05
9.60499e-08
1.77917e-07
2.08348e-05
8.76085e-08
1.63637e-07
2.07011e-05
7.98323e-08
1.50981e-07
2.05773e-05
7.26544e-08
1.39701e-07
2.04621e-05
6.60188e-08
1.29596e-07
2.03548e-05
5.98802e-08
1.20502e-07
2.02545e-05
5.42026e-08
1.12283e-07
2.01606e-05
4.89562e-08
1.04826e-07
2.00725e-05
4.41237e-08
9.80338e-08
1.99897e-05
3.96851e-08
9.18279e-08
1.99117e-05
3.56586e-08
8.61375e-08
1.98381e-05
3.20048e-08
8.09134e-08
1.97686e-05
2.88758e-08
7.60803e-08
1.97029e-05
2.60283e-08
7.16594e-08
1.96409e-05
2.42716e-08
6.74473e-08
1.95818e-05
2.21002e-08
6.37168e-08
1.95265e-05
2.36166e-08
6.02217e-08
1.94765e-05
2.07036e-08
5.27008e-08
1.94149e-05
3.25502e-08
6.83703e-08
2.17783e-08
-2.48058e-08
7.70659e-05
1.63594e-07
8.96492e-05
4.76591e-05
2.84859e-07
2.94871e-05
3.61757e-05
3.3775e-07
1.15733e-05
3.16013e-05
3.50611e-07
4.66307e-06
2.91199e-05
3.4239e-07
2.56427e-06
2.75008e-05
3.22914e-07
1.69442e-06
2.63223e-05
2.98448e-07
1.2462e-06
2.54128e-05
2.72676e-07
9.69888e-07
2.46849e-05
2.47616e-07
7.81771e-07
2.40865e-05
2.24259e-07
6.46581e-07
2.35843e-05
2.0299e-07
5.45444e-07
2.31557e-05
1.8386e-07
4.67443e-07
2.2785e-05
1.66751e-07
4.05796e-07
2.24607e-05
1.51471e-07
3.56081e-07
2.21743e-05
1.37805e-07
3.153e-07
2.19191e-05
1.25547e-07
2.81361e-07
2.16902e-05
1.1451e-07
2.52756e-07
2.14836e-05
1.0453e-07
2.28383e-07
2.1296e-05
9.54674e-08
2.07412e-07
2.11248e-05
8.72049e-08
1.89214e-07
2.09679e-05
7.96439e-08
1.73299e-07
2.08235e-05
7.27036e-08
1.59287e-07
2.06902e-05
6.63156e-08
1.46871e-07
2.05666e-05
6.0424e-08
1.35807e-07
2.04517e-05
5.49827e-08
1.25896e-07
2.03447e-05
4.99529e-08
1.1698e-07
2.02447e-05
4.53045e-08
1.0892e-07
2.0151e-05
4.10131e-08
1.01608e-07
2.00631e-05
3.70634e-08
9.49493e-08
1.99805e-05
3.34393e-08
8.88674e-08
1.99027e-05
3.01563e-08
8.32914e-08
1.98293e-05
2.71861e-08
7.81741e-08
1.97601e-05
2.46472e-08
7.34386e-08
1.96947e-05
2.23709e-08
6.91189e-08
1.9633e-05
2.09551e-08
6.49862e-08
1.95744e-05
1.93617e-08
6.1376e-08
1.95196e-05
2.04731e-08
5.79071e-08
1.94709e-05
1.88101e-08
5.06403e-08
1.94102e-05
2.72089e-08
6.60305e-08
2.10862e-08
-2.8107e-08
7.70605e-05
1.18922e-07
8.96509e-05
4.76453e-05
2.08343e-07
2.94917e-05
3.61555e-05
2.4902e-07
1.15785e-05
3.15776e-05
2.59885e-07
4.66868e-06
2.90944e-05
2.54857e-07
2.5707e-06
2.74749e-05
2.40971e-07
1.7015e-06
2.62966e-05
2.22998e-07
1.25368e-06
2.53879e-05
2.038e-07
9.77573e-07
2.46611e-05
1.8499e-07
7.89472e-07
2.40638e-05
1.67389e-07
6.54151e-07
2.35627e-05
1.51334e-07
5.52774e-07
2.31352e-05
1.36892e-07
4.74459e-07
2.27655e-05
1.23987e-07
4.12455e-07
2.24421e-05
1.12479e-07
3.62363e-07
2.21565e-05
1.02205e-07
3.21201e-07
2.19022e-05
9.3007e-08
2.86889e-07
2.1674e-05
8.47401e-08
2.5793e-07
2.14681e-05
7.72775e-08
2.33224e-07
2.12811e-05
7.05106e-08
2.11945e-07
2.11105e-05
6.43483e-08
1.93463e-07
2.09541e-05
5.87155e-08
1.7729e-07
2.08102e-05
5.35484e-08
1.63041e-07
2.06773e-05
4.87954e-08
1.50411e-07
2.05542e-05
4.44139e-08
1.39155e-07
2.04397e-05
4.03685e-08
1.2907e-07
2.0333e-05
3.66306e-08
1.19993e-07
2.02334e-05
3.31774e-08
1.11789e-07
2.01401e-05
2.99905e-08
1.04346e-07
2.00525e-05
2.70594e-08
9.75664e-08
1.99702e-05
2.43731e-08
9.1373e-08
1.98927e-05
2.19432e-08
8.56939e-08
1.98197e-05
1.97527e-08
8.04817e-08
1.97508e-05
1.7888e-08
7.56548e-08
1.96856e-05
1.62403e-08
7.12548e-08
1.96243e-05
1.523e-08
6.70306e-08
1.95662e-05
1.41772e-08
6.33631e-08
1.95118e-05
1.50295e-08
5.97583e-08
1.94639e-05
1.4235e-08
5.24915e-08
1.94033e-05
2.01987e-08
6.76268e-08
1.70092e-08
-2.73688e-08
7.70565e-05
7.79161e-08
8.96512e-05
4.7635e-05
1.3693e-07
2.94929e-05
3.61408e-05
1.64867e-07
1.15784e-05
3.15604e-05
1.72952e-07
4.66733e-06
2.90763e-05
1.70478e-07
2.56847e-06
2.74569e-05
1.61877e-07
1.6985e-06
2.62795e-05
1.50343e-07
1.25007e-06
2.53719e-05
1.37812e-07
9.73537e-07
2.46463e-05
1.25401e-07
7.8517e-07
2.40503e-05
1.13697e-07
6.49725e-07
2.35503e-05
1.02959e-07
5.48335e-07
2.31239e-05
9.32552e-08
4.70093e-07
2.27551e-05
8.4552e-08
4.08223e-07
2.24325e-05
7.67676e-08
3.58302e-07
2.21476e-05
6.98022e-08
3.17339e-07
2.18938e-05
6.35553e-08
2.83234e-07
2.16661e-05
5.79335e-08
2.54485e-07
2.14606e-05
5.2854e-08
2.29982e-07
2.12739e-05
4.82455e-08
2.08899e-07
2.11036e-05
4.40481e-08
1.90601e-07
2.09475e-05
4.02108e-08
1.74598e-07
2.08039e-05
3.66916e-08
1.60507e-07
2.06712e-05
3.34553e-08
1.48021e-07
2.05482e-05
3.04729e-08
1.36895e-07
2.0434e-05
2.77209e-08
1.2693e-07
2.03274e-05
2.51794e-08
1.17963e-07
2.02279e-05
2.28326e-08
1.09859e-07
2.01348e-05
2.06678e-08
1.02505e-07
2.00473e-05
1.86781e-08
9.58078e-08
1.99652e-05
1.68561e-08
8.96895e-08
1.98878e-05
1.52088e-08
8.40805e-08
1.98149e-05
1.37265e-08
7.89336e-08
1.97462e-05
1.24656e-08
7.41654e-08
1.96812e-05
1.1361e-08
6.98236e-08
1.96201e-05
1.06781e-08
6.56472e-08
1.95622e-05
1.00082e-08
6.20474e-08
1.95083e-05
1.05421e-08
5.84642e-08
1.9461e-05
1.01609e-08
5.13301e-08
1.9401e-05
1.3853e-08
6.63293e-08
1.22054e-08
-2.91432e-08
7.70544e-05
3.84662e-08
8.96517e-05
4.76291e-05
6.7621e-08
2.94946e-05
3.61318e-05
8.17628e-08
1.15803e-05
3.15496e-05
8.58605e-08
4.66932e-06
2.90645e-05
8.47277e-08
2.57081e-06
2.74448e-05
8.04677e-08
1.70115e-06
2.62675e-05
7.46981e-08
1.25298e-06
2.53602e-05
6.84021e-08
9.76629e-07
2.46351e-05
6.21541e-08
7.88372e-07
2.40396e-05
5.62592e-08
6.52967e-07
2.35401e-05
5.08536e-08
5.51555e-07
2.31142e-05
4.59754e-08
4.73243e-07
2.27459e-05
4.16079e-08
4.11266e-07
2.24237e-05
3.77101e-08
3.61216e-07
2.21392e-05
3.42302e-08
3.20106e-07
2.18858e-05
3.11164e-08
2.8585e-07
2.16584e-05
2.832e-08
2.56947e-07
2.14532e-05
2.5798e-08
2.32295e-07
2.12668e-05
2.35137e-08
2.11068e-07
2.10968e-05
2.14359e-08
1.92635e-07
2.0941e-05
1.95387e-08
1.76506e-07
2.07976e-05
1.78001e-08
1.62297e-07
2.06651e-05
1.6203e-08
1.49705e-07
2.05424e-05
1.47317e-08
1.38481e-07
2.04283e-05
1.33745e-08
1.28427e-07
2.0322e-05
1.21217e-08
1.19378e-07
2.02227e-05
1.09656e-08
1.11198e-07
2.01297e-05
9.8993e-09
1.03777e-07
2.00424e-05
8.91999e-09
9.70175e-08
1.99604e-05
8.02377e-09
9.08436e-08
1.98832e-05
7.21478e-09
8.51807e-08
1.98104e-05
6.48825e-09
7.9986e-08
1.97419e-05
5.87251e-09
7.51705e-08
1.96771e-05
5.33726e-09
7.07899e-08
1.96162e-05
5.01176e-09
6.65682e-08
1.95586e-05
4.70574e-09
6.29382e-08
1.95048e-05
4.98567e-09
5.92924e-08
1.9458e-05
4.86783e-09
5.21548e-08
1.93981e-05
6.70724e-09
6.70334e-08
6.06431e-09
-2.88411e-08
7.70533e-05
1.956e-14
8.96518e-05
4.76259e-05
4.17255e-14
2.9495e-05
3.61273e-05
3.39327e-14
1.15804e-05
3.15442e-05
-5.68337e-14
4.66896e-06
2.90587e-05
1.61842e-13
2.57016e-06
2.7439e-05
1.79217e-13
1.70023e-06
2.62619e-05
7.09004e-14
1.25181e-06
2.5355e-05
2.1752e-13
9.75264e-07
2.46303e-05
-8.03593e-15
7.86864e-07
2.40352e-05
-1.34787e-14
6.51361e-07
2.35362e-05
1.71267e-13
5.49897e-07
2.31106e-05
9.09971e-14
4.71566e-07
2.27426e-05
2.03417e-13
4.09599e-07
2.24207e-05
2.16924e-13
3.59577e-07
2.21364e-05
9.09973e-14
3.18511e-07
2.18832e-05
1.7118e-13
2.84309e-07
2.16561e-05
-1.09852e-14
2.55464e-07
2.1451e-05
-4.41822e-14
2.30872e-07
2.12648e-05
-3.11773e-14
2.09706e-07
2.10949e-05
-1.12918e-13
1.91332e-07
2.09392e-05
9.09413e-14
1.75262e-07
2.07959e-05
1.6203e-13
1.61109e-07
2.06635e-05
1.41799e-13
1.48567e-07
2.05409e-05
7.51863e-14
1.37392e-07
2.04269e-05
-2.28656e-15
1.27383e-07
2.03206e-05
-7.90364e-15
1.18375e-07
2.02213e-05
4.89302e-14
1.10234e-07
2.01284e-05
2.55139e-13
1.02848e-07
2.00412e-05
2.85815e-13
9.61234e-08
1.99592e-05
3.67046e-13
8.99803e-08
1.98821e-05
4.45314e-13
8.43468e-08
1.98094e-05
5.83385e-13
7.91801e-08
1.97409e-05
6.73246e-13
7.43919e-08
1.96762e-05
8.01742e-13
7.00347e-08
1.96154e-05
9.85435e-13
6.58354e-08
1.95578e-05
1.10795e-12
6.22336e-08
1.95042e-05
1.49263e-12
5.85999e-08
1.94576e-05
1.66934e-12
5.15135e-08
1.9398e-05
1.98389e-12
6.63224e-08
1.18439e-12
-2.97151e-08
7.70533e-05
-3.84661e-08
8.96518e-05
4.76259e-05
-6.76207e-08
2.9495e-05
3.61273e-05
-8.1763e-08
1.15804e-05
3.15442e-05
-8.58604e-08
4.66896e-06
2.90587e-05
-8.47276e-08
2.57016e-06
2.7439e-05
-8.04675e-08
1.70023e-06
2.62619e-05
-7.46979e-08
1.25181e-06
2.5355e-05
-6.84022e-08
9.75264e-07
2.46303e-05
-6.21541e-08
7.86864e-07
2.40352e-05
-5.62589e-08
6.51361e-07
2.35362e-05
-5.08534e-08
5.49898e-07
2.31106e-05
-4.59751e-08
4.71566e-07
2.27426e-05
-4.16079e-08
4.09598e-07
2.24207e-05
-3.77099e-08
3.59578e-07
2.21364e-05
-3.42302e-08
3.18512e-07
2.18832e-05
-3.11162e-08
2.84309e-07
2.16561e-05
-2.83198e-08
2.55463e-07
2.1451e-05
-2.5798e-08
2.30872e-07
2.12648e-05
-2.35134e-08
2.09706e-07
2.10949e-05
-2.14357e-08
1.91332e-07
2.09392e-05
-1.95386e-08
1.75262e-07
2.07959e-05
-1.77999e-08
1.61108e-07
2.06635e-05
-1.62027e-08
1.48567e-07
2.05409e-05
-1.47313e-08
1.37392e-07
2.04269e-05
-1.33743e-08
1.27382e-07
2.03206e-05
-1.21216e-08
1.18374e-07
2.02213e-05
-1.09652e-08
1.10234e-07
2.01284e-05
-9.89922e-09
1.02849e-07
2.00412e-05
-8.91945e-09
9.61245e-08
1.99592e-05
-8.0232e-09
8.99805e-08
1.98821e-05
-7.21403e-09
8.4347e-08
1.98094e-05
-6.48745e-09
7.91801e-08
1.97409e-05
-5.87143e-09
7.4392e-08
1.96762e-05
-5.33577e-09
7.00362e-08
1.96154e-05
-5.00963e-09
6.5836e-08
1.95578e-05
-4.70315e-09
6.22351e-08
1.95042e-05
-4.9827e-09
5.85994e-08
1.94576e-05
-4.86509e-09
5.1513e-08
1.9398e-05
-6.70344e-09
6.6322e-08
-6.06176e-09
-2.97141e-08
7.70544e-05
-7.7916e-08
8.96517e-05
4.76291e-05
-1.3693e-07
2.94946e-05
3.61318e-05
-1.64867e-07
1.15803e-05
3.15496e-05
-1.72951e-07
4.66932e-06
2.90645e-05
-1.70477e-07
2.57081e-06
2.74448e-05
-1.61877e-07
1.70115e-06
2.62675e-05
-1.50343e-07
1.25298e-06
2.53602e-05
-1.37812e-07
9.76629e-07
2.46351e-05
-1.25401e-07
7.88373e-07
2.40396e-05
-1.13697e-07
6.52966e-07
2.35401e-05
-1.02959e-07
5.51556e-07
2.31142e-05
-9.32551e-08
4.73243e-07
2.27459e-05
-8.45519e-08
4.11267e-07
2.24237e-05
-7.67674e-08
3.61216e-07
2.21392e-05
-6.98022e-08
3.20106e-07
2.18858e-05
-6.35553e-08
2.8585e-07
2.16584e-05
-5.79335e-08
2.56946e-07
2.14532e-05
-5.28539e-08
2.32295e-07
2.12668e-05
-4.82457e-08
2.11068e-07
2.10968e-05
-4.4048e-08
1.92634e-07
2.0941e-05
-4.02107e-08
1.76506e-07
2.07976e-05
-3.66915e-08
1.62297e-07
2.06651e-05
-3.34552e-08
1.49705e-07
2.05424e-05
-3.0473e-08
1.38481e-07
2.04283e-05
-2.77209e-08
1.28425e-07
2.0322e-05
-2.51793e-08
1.19377e-07
2.02227e-05
-2.28324e-08
1.11199e-07
2.01297e-05
-2.06676e-08
1.03776e-07
2.00424e-05
-1.86778e-08
9.70168e-08
1.99604e-05
-1.68554e-08
9.08441e-08
1.98832e-05
-1.52081e-08
8.51804e-08
1.98104e-05
-1.37256e-08
7.99847e-08
1.97419e-05
-1.24642e-08
7.5171e-08
1.96771e-05
-1.13594e-08
7.07892e-08
1.96162e-05
-1.06759e-08
6.65683e-08
1.95586e-05
-1.00058e-08
6.29386e-08
1.95048e-05
-1.05392e-08
5.92926e-08
1.9458e-05
-1.01576e-08
5.21538e-08
1.93981e-05
-1.38492e-08
6.70331e-08
-1.22031e-08
-2.8842e-08
7.70565e-05
-1.18922e-07
8.96512e-05
4.7635e-05
-2.08342e-07
2.94929e-05
3.61408e-05
-2.4902e-07
1.15784e-05
3.15604e-05
-2.59885e-07
4.66733e-06
2.90763e-05
-2.54857e-07
2.56847e-06
2.74569e-05
-2.40971e-07
1.6985e-06
2.62795e-05
-2.22998e-07
1.25007e-06
2.53719e-05
-2.038e-07
9.73537e-07
2.46463e-05
-1.8499e-07
7.85171e-07
2.40503e-05
-1.67388e-07
6.49724e-07
2.35503e-05
-1.51334e-07
5.48336e-07
2.31239e-05
-1.36892e-07
4.70093e-07
2.27551e-05
-1.23987e-07
4.08222e-07
2.24325e-05
-1.12478e-07
3.58303e-07
2.21476e-05
-1.02205e-07
3.17339e-07
2.18938e-05
-9.30069e-08
2.83234e-07
2.16661e-05
-8.47398e-08
2.54484e-07
2.14606e-05
-7.72772e-08
2.29981e-07
2.12739e-05
-7.05103e-08
2.08899e-07
2.11036e-05
-6.43483e-08
1.906e-07
2.09475e-05
-5.87151e-08
1.74598e-07
2.08039e-05
-5.35482e-08
1.60507e-07
2.06712e-05
-4.87954e-08
1.48021e-07
2.05482e-05
-4.4414e-08
1.36896e-07
2.0434e-05
-4.03687e-08
1.2693e-07
2.03274e-05
-3.66308e-08
1.17963e-07
2.02279e-05
-3.31774e-08
1.09859e-07
2.01348e-05
-2.999e-08
1.02505e-07
2.00473e-05
-2.7059e-08
9.58079e-08
1.99652e-05
-2.43727e-08
8.96903e-08
1.98878e-05
-2.19423e-08
8.40798e-08
1.98149e-05
-1.97516e-08
7.89336e-08
1.97462e-05
-1.78868e-08
7.41659e-08
1.96812e-05
-1.62386e-08
6.98234e-08
1.96201e-05
-1.52281e-08
6.56471e-08
1.95622e-05
-1.41751e-08
6.20472e-08
1.95083e-05
-1.50266e-08
5.84637e-08
1.9461e-05
-1.42321e-08
5.13307e-08
1.9401e-05
-2.01949e-08
6.63298e-08
-1.70069e-08
-2.91444e-08
7.70605e-05
-1.63594e-07
8.96509e-05
4.76453e-05
-2.84858e-07
2.94917e-05
3.61555e-05
-3.3775e-07
1.15785e-05
3.15776e-05
-3.50611e-07
4.66868e-06
2.90944e-05
-3.4239e-07
2.5707e-06
2.74749e-05
-3.22914e-07
1.7015e-06
2.62966e-05
-2.98448e-07
1.25368e-06
2.53879e-05
-2.72676e-07
9.77572e-07
2.46611e-05
-2.47616e-07
7.89472e-07
2.40638e-05
-2.24259e-07
6.54151e-07
2.35627e-05
-2.0299e-07
5.52775e-07
2.31352e-05
-1.8386e-07
4.7446e-07
2.27655e-05
-1.66751e-07
4.12455e-07
2.24421e-05
-1.5147e-07
3.62363e-07
2.21565e-05
-1.37805e-07
3.212e-07
2.19022e-05
-1.25547e-07
2.86888e-07
2.1674e-05
-1.1451e-07
2.5793e-07
2.14681e-05
-1.0453e-07
2.33224e-07
2.12811e-05
-9.54674e-08
2.11945e-07
2.11105e-05
-8.72047e-08
1.93463e-07
2.09541e-05
-7.9644e-08
1.7729e-07
2.08102e-05
-7.27035e-08
1.63042e-07
2.06773e-05
-6.63155e-08
1.50411e-07
2.05542e-05
-6.04244e-08
1.39155e-07
2.04397e-05
-5.49826e-08
1.2907e-07
2.0333e-05
-4.99527e-08
1.19993e-07
2.02334e-05
-4.53045e-08
1.1179e-07
2.01401e-05
-4.10126e-08
1.04346e-07
2.00525e-05
-3.70629e-08
9.75664e-08
1.99702e-05
-3.34388e-08
9.13732e-08
1.98927e-05
-3.01555e-08
8.56933e-08
1.98197e-05
-2.71852e-08
8.0482e-08
1.97508e-05
-2.4646e-08
7.56552e-08
1.96856e-05
-2.23694e-08
7.12547e-08
1.96243e-05
-2.09533e-08
6.70322e-08
1.95662e-05
-1.93599e-08
6.33634e-08
1.95118e-05
-2.0471e-08
5.97588e-08
1.94639e-05
-1.88076e-08
5.24907e-08
1.94033e-05
-2.72058e-08
6.76264e-08
-2.10843e-08
-2.73702e-08
7.70659e-05
-2.11936e-07
8.96492e-05
4.76591e-05
-3.65207e-07
2.94871e-05
3.61757e-05
-4.27615e-07
1.15733e-05
3.16013e-05
-4.39349e-07
4.66307e-06
2.91199e-05
-4.25255e-07
2.56427e-06
2.75008e-05
-3.98263e-07
1.69442e-06
2.63223e-05
-3.66073e-07
1.2462e-06
2.54128e-05
-3.33062e-07
9.69888e-07
2.46849e-05
-3.01508e-07
7.81771e-07
2.40865e-05
-2.72444e-07
6.46581e-07
2.35843e-05
-2.46202e-07
5.45444e-07
2.31557e-05
-2.22743e-07
4.67443e-07
2.2785e-05
-2.01853e-07
4.05797e-07
2.24607e-05
-1.83251e-07
3.56081e-07
2.21743e-05
-1.66646e-07
3.15301e-07
2.19191e-05
-1.51769e-07
2.81361e-07
2.16902e-05
-1.38378e-07
2.52755e-07
2.14836e-05
-1.26271e-07
2.28382e-07
2.1296e-05
-1.15272e-07
2.07412e-07
2.11248e-05
-1.05238e-07
1.89214e-07
2.09679e-05
-9.605e-08
1.73299e-07
2.08235e-05
-8.76087e-08
1.59287e-07
2.06902e-05
-7.98325e-08
1.46869e-07
2.05666e-05
-7.26542e-08
1.35806e-07
2.04517e-05
-6.60188e-08
1.25896e-07
2.03447e-05
-5.98802e-08
1.16979e-07
2.02447e-05
-5.42025e-08
1.0892e-07
2.0151e-05
-4.8956e-08
1.01609e-07
2.00631e-05
-4.41233e-08
9.49502e-08
1.99805e-05
-3.96846e-08
8.8868e-08
1.99027e-05
-3.56581e-08
8.32912e-08
1.98293e-05
-3.20038e-08
7.81736e-08
1.97601e-05
-2.88747e-08
7.34382e-08
1.96947e-05
-2.60271e-08
6.91184e-08
1.9633e-05
-2.42701e-08
6.49859e-08
1.95744e-05
-2.20987e-08
6.13769e-08
1.95196e-05
-2.36148e-08
5.79059e-08
1.94709e-05
-2.07016e-08
5.06397e-08
1.94102e-05
-3.25475e-08
6.60307e-08
-2.17766e-08
-2.81088e-08
7.7075e-05
-2.69007e-07
8.96488e-05
4.76803e-05
-4.56066e-07
2.94855e-05
3.62044e-05
-5.26899e-07
1.15751e-05
3.16333e-05
-5.36105e-07
4.66786e-06
2.91524e-05
-5.15226e-07
2.57086e-06
2.75322e-05
-4.80367e-07
1.70232e-06
2.63516e-05
-4.40406e-07
1.25491e-06
2.54398e-05
-4.00232e-07
9.79004e-07
2.47096e-05
-3.62255e-07
7.9096e-07
2.4109e-05
-3.27491e-07
6.55608e-07
2.36049e-05
-2.96198e-07
5.54154e-07
2.31747e-05
-2.68254e-07
4.75738e-07
2.28025e-05
-2.43365e-07
4.13628e-07
2.2477e-05
-2.21179e-07
3.63432e-07
2.21896e-05
-2.01348e-07
3.22177e-07
2.19336e-05
-1.83553e-07