/*--------------------------------*- C++ -*----------------------------------*\
| =========                 |                                                 |
| \\      /  F ield         | OpenFOAM: The Open Source CFD Toolbox           |
|  \\    /   O peration     | Version:  5.0                                   |
|   \\  /    A nd           | Web:      www.OpenFOAM.org                      |
|    \\/     M anipulation  |                                                 |
\*---------------------------------------------------------------------------*/
FoamFile
{
    version     2.0;
    format      ascii;
    class       volScalarField;
    location    "350/porous";
    object      T;
}
// * * * * * * * * * * * * * * * * * * * * * * * * * * * * * * * * * * * * * //

dimensions      [0 0 0 1 0 0 0];

internalField   nonuniform List<scalar> 
36000
(
400
400
400
400
399.999
399.572
399.189
398.838
398.505
398.185
397.874
397.568
397.268
396.972
396.679
396.39
396.102
395.817
395.533
395.253
394.976
394.701
394.425
394.149
393.874
393.599
393.325
393.053
392.784
392.516
392.25
391.986
391.724
391.464
391.213
391.748
392.108
392.381
392.602
392.79
400
400
400
400
399.999
399.622
399.285
398.978
398.69
398.416
398.151
397.894
397.643
397.397
397.156
396.919
396.684
396.451
396.222
395.996
395.774
395.553
395.333
395.113
394.894
394.676
394.459
394.244
394.031
393.82
393.611
393.403
393.198
392.994
392.795
393.146
393.392
393.581
393.731
393.863
400
400
400
400
399.999
399.628
399.3
399.001
398.725
398.463
398.213
397.971
397.736
397.508
397.285
397.066
396.851
396.639
396.431
396.227
396.027
395.83
395.634
395.439
395.245
395.053
394.863
394.675
394.489
394.305
394.123
393.943
393.765
393.589
393.418
393.742
393.972
394.15
394.291
394.413
400
400
400
400
399.999
399.627
399.298
399.001
398.726
398.467
398.22
397.981
397.75
397.526
397.308
397.093
396.883
396.676
396.473
396.275
396.082
395.892
395.703
395.516
395.331
395.147
394.966
394.787
394.61
394.435
394.263
394.093
393.925
393.759
393.597
393.916
394.144
394.321
394.463
394.584
400
400
400
400
399.999
399.626
399.297
399
398.726
398.468
398.222
397.984
397.754
397.531
397.313
397.099
396.889
396.683
396.481
396.284
396.091
395.902
395.716
395.531
395.348
395.167
394.989
394.813
394.639
394.467
394.298
394.131
393.966
393.804
393.646
393.963
394.191
394.367
394.51
394.631
400
400
400
400
399.999
399.625
399.295
398.998
398.724
398.466
398.22
397.983
397.753
397.53
397.312
397.097
396.886
396.679
396.476
396.278
396.085
395.895
395.708
395.523
395.34
395.16
394.983
394.808
394.635
394.465
394.296
394.131
393.967
393.806
393.649
393.965
394.194
394.37
394.513
394.634
400
400
400
400
399.999
399.624
399.294
398.997
398.723
398.467
398.222
397.986
397.756
397.532
397.313
397.098
396.886
396.679
396.475
396.275
396.08
395.889
395.701
395.516
395.333
395.153
394.976
394.802
394.63
394.46
394.292
394.127
393.964
393.803
393.646
393.962
394.191
394.367
394.51
394.631
400
400
400
400
399.999
399.624
399.293
398.996
398.723
398.467
398.223
397.987
397.758
397.534
397.314
397.098
396.885
396.676
396.471
396.27
396.074
395.881
395.692
395.506
395.322
395.142
394.965
394.791
394.62
394.45
394.283
394.118
393.955
393.795
393.638
393.954
394.183
394.359
394.502
394.623
400
400
400
400
399.999
399.624
399.293
398.996
398.724
398.469
398.225
397.99
397.761
397.537
397.317
397.1
396.887
396.677
396.47
396.269
396.071
395.877
395.687
395.5
395.316
395.136
394.959
394.785
394.614
394.445
394.278
394.113
393.951
393.79
393.633
393.95
394.178
394.354
394.498
394.619
400
400
400
400
399.999
399.623
399.293
398.996
398.724
398.47
398.227
397.992
397.763
397.539
397.319
397.101
396.887
396.675
396.468
396.265
396.066
395.871
395.68
395.493
395.309
395.128
394.951
394.778
394.607
394.439
394.272
394.108
393.946
393.785
393.628
393.944
394.172
394.349
394.492
394.613
400
400
400
400
399.999
399.624
399.293
398.997
398.726
398.472
398.229
397.994
397.765
397.541
397.321
397.103
396.887
396.675
396.467
396.263
396.064
395.867
395.676
395.488
395.304
395.124
394.947
394.774
394.604
394.435
394.269
394.105
393.944
393.783
393.625
393.941
394.17
394.346
394.489
394.61
400
400
400
400
399.999
399.624
399.294
398.998
398.727
398.473
398.23
397.995
397.766
397.541
397.32
397.102
396.886
396.673
396.464
396.261
396.061
395.864
395.671
395.484
395.3
395.12
394.943
394.77
394.6
394.432
394.267
394.103
393.942
393.781
393.622
393.939
394.167
394.343
394.487
394.608
400
400
400
400
399.999
399.625
399.295
399
398.729
398.475
398.231
397.995
397.765
397.541
397.319
397.1
396.884
396.671
396.463
396.26
396.061
395.864
395.671
395.483
395.299
395.119
394.943
394.77
394.601
394.433
394.268
394.105
393.944
393.782
393.622
393.939
394.167
394.343
394.487
394.608
400
400
400
400
399.999
399.625
399.297
399.002
398.731
398.475
398.231
397.994
397.764
397.538
397.316
397.097
396.881
396.668
396.461
396.258
396.059
395.863
395.67
395.482
395.298
395.118
394.943
394.771
394.601
394.434
394.269
394.107
393.946
393.783
393.622
393.939
394.167
394.344
394.487
394.608
400
400
400
400
399.999
399.626
399.298
399.003
398.732
398.476
398.23
397.993
397.762
397.536
397.313
397.094
396.878
396.666
396.459
396.256
396.058
395.862
395.669
395.481
395.297
395.118
394.943
394.771
394.603
394.436
394.272
394.11
393.948
393.785
393.624
393.94
394.169
394.345
394.488
394.609
400
400
400
400
399.999
399.627
399.3
399.006
398.734
398.476
398.229
397.991
397.76
397.533
397.31
397.091
396.875
396.663
396.456
396.254
396.055
395.86
395.667
395.479
395.296
395.117
394.943
394.772
394.604
394.438
394.275
394.113
393.951
393.786
393.623
393.94
394.169
394.345
394.489
394.61
400
400
400
400
399.999
399.628
399.301
399.007
398.734
398.475
398.228
397.989
397.757
397.53
397.307
397.088
396.872
396.66
396.453
396.251
396.052
395.857
395.664
395.476
395.294
395.116
394.943
394.773
394.606
394.44
394.277
394.115
393.952
393.786
393.623
393.94
394.169
394.345
394.489
394.61
400
400
400
400
399.999
399.628
399.302
399.007
398.734
398.475
398.227
397.988
397.756
397.528
397.305
397.087
396.871
396.659
396.452
396.249
396.051
395.855
395.662
395.475
395.293
395.116
394.944
394.774
394.608
394.443
394.28
394.117
393.953
393.786
393.622
393.94
394.169
394.345
394.489
394.61
400
400
400
400
399.999
399.629
399.303
399.008
398.734
398.475
398.226
397.987
397.755
397.528
397.305
397.086
396.871
396.659
396.451
396.249
396.05
395.854
395.661
395.475
395.293
395.117
394.945
394.776
394.61
394.445
394.282
394.119
393.953
393.786
393.621
393.939
394.168
394.345
394.489
394.61
400
400
400
400
399.999
399.63
399.304
399.008
398.734
398.474
398.226
397.987
397.755
397.528
397.305
397.087
396.873
396.662
396.455
396.252
396.053
395.857
395.666
395.48
395.299
395.122
394.95
394.781
394.615
394.45
394.286
394.122
393.956
393.788
393.623
393.941
394.17
394.347
394.491
394.612
400
400
400
400
399.999
399.631
399.305
399.009
398.734
398.474
398.226
397.987
397.755
397.528
397.306
397.089
396.875
396.665
396.459
396.257
396.059
395.863
395.673
395.486
395.305
395.128
394.955
394.785
394.618
394.453
394.289
394.124
393.957
393.788
393.623
393.942
394.171
394.348
394.492
394.613
400
400
400
400
399.999
399.631
399.305
399.009
398.735
398.475
398.227
397.988
397.757
397.53
397.309
397.092
396.88
396.671
396.466
396.265
396.067
395.873
395.682
395.496
395.314
395.137
394.963
394.792
394.624
394.458
394.293
394.127
393.96
393.791
393.626
393.945
394.175
394.352
394.496
394.617
400
400
400
400
399.999
399.632
399.306
399.01
398.735
398.475
398.227
397.988
397.757
397.532
397.311
397.095
396.884
396.676
396.473
396.272
396.075
395.881
395.69
395.504
395.322
395.144
394.969
394.798
394.628
394.461
394.295
394.129
393.961
393.793
393.627
393.946
394.176
394.354
394.498
394.619
400
400
400
400
399.999
399.632
399.306
399.011
398.736
398.476
398.228
397.99
397.759
397.535
397.315
397.1
396.89
396.684
396.482
396.283
396.086
395.892
395.702
395.516
395.333
395.155
394.979
394.806
394.636
394.468
394.301
394.134
393.966
393.798
393.633
393.952
394.182
394.36
394.504
394.625
400
400
400
400
399.999
399.632
399.307
399.011
398.736
398.477
398.229
397.99
397.76
397.536
397.317
397.103
396.894
396.69
396.489
396.29
396.094
395.901
395.71
395.524
395.341
395.162
394.986
394.811
394.64
394.47
394.302
394.135
393.967
393.799
393.634
393.953
394.184
394.361
394.505
394.627
400
400
400
400
399.999
399.633
399.308
399.013
398.738
398.479
398.231
397.993
397.762
397.538
397.32
397.107
396.899
396.696
396.496
396.299
396.103
395.91
395.719
395.532
395.349
395.169
394.991
394.815
394.642
394.471
394.301
394.133
393.965
393.796
393.631
393.95
394.181
394.358
394.502
394.623
400
400
400
400
399.999
399.633
399.308
399.013
398.738
398.478
398.23
397.99
397.759
397.534
397.315
397.101
396.893
396.689
396.489
396.291
396.094
395.899
395.707
395.518
395.332
395.149
394.969
394.79
394.613
394.438
394.265
394.093
393.922
393.751
393.583
393.904
394.135
394.312
394.455
394.577
400
400
400
400
399.999
399.634
399.309
399.012
398.735
398.473
398.222
397.98
397.744
397.515
397.292
397.073
396.859
396.65
396.445
396.241
396.038
395.837
395.637
395.441
395.247
395.056
394.866
394.678
394.492
394.307
394.125
393.944
393.764
393.583
393.406
393.732
393.964
394.143
394.285
394.407
400
400
400
400
399.999
399.627
399.294
398.987
398.699
398.425
398.16
397.902
397.651
397.404
397.162
396.924
396.691
396.461
396.234
396.009
395.783
395.559
395.336
395.115
394.896
394.679
394.463
394.249
394.036
393.824
393.615
393.406
393.198
392.991
392.786
393.14
393.387
393.576
393.727
393.859
400
400
400
400
399.999
399.577
399.198
398.846
398.514
398.193
397.881
397.576
397.275
396.977
396.684
396.395
396.109
395.826
395.546
395.266
394.986
394.706
394.427
394.151
393.876
393.603
393.33
393.059
392.79
392.522
392.256
391.991
391.727
391.463
391.205
391.743
392.104
392.378
392.6
392.788
400
400
400
400
399.999
399.773
399.517
399.247
398.968
398.685
398.401
398.116
397.831
397.547
397.265
396.983
396.703
396.423
396.144
395.868
395.593
395.32
395.047
394.773
394.5
394.227
393.955
393.684
393.415
393.147
392.88
392.616
392.353
392.092
391.836
392.084
392.322
392.535
392.722
392.886
400
400
400
400
400
399.805
399.589
399.362
399.13
398.895
398.66
398.426
398.193
397.962
397.733
397.506
397.28
397.056
396.834
396.614
396.396
396.18
395.965
395.75
395.536
395.322
395.109
394.898
394.688
394.48
394.273
394.067
393.863
393.661
393.461
393.575
393.696
393.814
393.92
394.021
400
400
400
400
400
399.809
399.599
399.381
399.159
398.936
398.715
398.495
398.278
398.064
397.853
397.645
397.439
397.235
397.034
396.836
396.641
396.448
396.257
396.066
395.877
395.689
395.503
395.318
395.135
394.954
394.774
394.596
394.42
394.246
394.074
394.175
394.283
394.39
394.487
394.579
400
400
400
400
400
399.808
399.598
399.38
399.16
398.939
398.72
398.504
398.29
398.08
397.874
397.67
397.469
397.27
397.075
396.882
396.693
396.507
396.323
396.14
395.959
395.78
395.602
395.426
395.252
395.08
394.909
394.741
394.575
394.41
394.248
394.348
394.455
394.56
394.658
394.749
400
400
400
400
400
399.808
399.598
399.38
399.159
398.94
398.722
398.506
398.294
398.085
397.879
397.676
397.475
397.278
397.083
396.891
396.703
396.519
396.336
396.155
395.976
395.799
395.624
395.451
395.28
395.111
394.944
394.778
394.615
394.454
394.295
394.395
394.503
394.607
394.706
394.797
400
400
400
400
400
399.807
399.596
399.377
399.157
398.937
398.719
398.504
398.291
398.082
397.876
397.673
397.472
397.274
397.078
396.886
396.698
396.512
396.329
396.148
395.969
395.793
395.618
395.446
395.276
395.107
394.941
394.777
394.615
394.454
394.297
394.397
394.505
394.61
394.708
394.8
400
400
400
400
400
399.807
399.595
399.377
399.156
398.937
398.72
398.505
398.293
398.084
397.878
397.674
397.472
397.273
397.077
396.884
396.695
396.508
396.324
396.143
395.963
395.786
395.612
395.44
395.27
395.102
394.936
394.773
394.611
394.451
394.294
394.394
394.502
394.607
394.705
394.797
400
400
400
400
400
399.806
399.595
399.376
399.155
398.936
398.719
398.504
398.293
398.084
397.877
397.673
397.471
397.271
397.074
396.88
396.689
396.501
396.316
396.134
395.954
395.777
395.602
395.43
395.26
395.093
394.927
394.763
394.602
394.442
394.285
394.385
394.493
394.598
394.697
394.789
400
400
400
400
400
399.806
399.594
399.376
399.156
398.937
398.72
398.506
398.295
398.086
397.879
397.675
397.472
397.272
397.074
396.879
396.687
396.498
396.312
396.129
395.949
395.771
395.596
395.425
395.255
395.088
394.922
394.759
394.597
394.438
394.281
394.381
394.489
394.594
394.693
394.784
400
400
400
400
400
399.806
399.594
399.376
399.156
398.937
398.721
398.507
398.296
398.087
397.88
397.675
397.472
397.271
397.072
396.876
396.684
396.494
396.307
396.123
395.943
395.765
395.59
395.418
395.248
395.081
394.916
394.752
394.591
394.432
394.275
394.375
394.483
394.588
394.687
394.778
400
400
400
400
400
399.806
399.595
399.376
399.157
398.938
398.722
398.509
398.298
398.089
397.882
397.677
397.473
397.271
397.072
396.875
396.682
396.492
396.304
396.12
395.939
395.761
395.586
395.414
395.245
395.078
394.913
394.75
394.589
394.43
394.272
394.372
394.48
394.585
394.684
394.776
400
400
400
400
400
399.806
399.595
399.376
399.157
398.939
398.723
398.509
398.298
398.089
397.881
397.676
397.472
397.269
397.069
396.873
396.68
396.489
396.301
396.116
395.935
395.757
395.582
395.41
395.241
395.075
394.91
394.747
394.587
394.427
394.269
394.37
394.477
394.583
394.681
394.773
400
400
400
400
400
399.807
399.596
399.378
399.159
398.94
398.724
398.509
398.298
398.088
397.881
397.675
397.47
397.268
397.068
396.872
396.679
396.488
396.3
396.115
395.934
395.756
395.582
395.41
395.241
395.075
394.91
394.748
394.588
394.428
394.27
394.37
394.478
394.583
394.682
394.773
400
400
400
400
400
399.807
399.596
399.379
399.16
398.941
398.724
398.509
398.297
398.087
397.879
397.673
397.468
397.266
397.066
396.87
396.677
396.487
396.299
396.114
395.933
395.755
395.581
395.41
395.241
395.075
394.911
394.749
394.589
394.429
394.27
394.37
394.478
394.583
394.682
394.773
400
400
400
400
400
399.807
399.597
399.38
399.161
398.941
398.724
398.508
398.296
398.085
397.877
397.67
397.465
397.263
397.064
396.869
396.676
396.485
396.298
396.113
395.932
395.755
395.581
395.41
395.242
395.076
394.913
394.751
394.591
394.431
394.271
394.371
394.479
394.584
394.683
394.775
400
400
400
400
400
399.808
399.598
399.381
399.162
398.942
398.724
398.508
398.295
398.083
397.875
397.668
397.463
397.261
397.062
396.866
396.674
396.483
396.296
396.111
395.93
395.753
395.58
395.41
395.243
395.077
394.914
394.754
394.593
394.432
394.272
394.372
394.48
394.585
394.683
394.775
400
400
400
400
400
399.808
399.599
399.382
399.162
398.942
398.723
398.507
398.293
398.082
397.872
397.665
397.461
397.259
397.059
396.864
396.671
396.481
396.293
396.109
395.928
395.752
395.579
395.409
395.243
395.078
394.916
394.755
394.594
394.432
394.271
394.372
394.479
394.585
394.683
394.775
400
400
400
400
400
399.808
399.599
399.383
399.162
398.942
398.723
398.506
398.292
398.081
397.871
397.665
397.46
397.258
397.058
396.863
396.67
396.479
396.291
396.107
395.927
395.751
395.579
395.41
395.244
395.08
394.918
394.757
394.595
394.433
394.272
394.372
394.48
394.585
394.684
394.775
400
400
400
400
400
399.809
399.6
399.383
399.163
398.942
398.723
398.506
398.292
398.08
397.871
397.664
397.46
397.258
397.058
396.862
396.669
396.479
396.291
396.107
395.928
395.752
395.58
395.412
395.246
395.082
394.919
394.758
394.596
394.433
394.271
394.371
394.479
394.585
394.683
394.775
400
400
400
400
400
399.809
399.601
399.383
399.163
398.942
398.723
398.506
398.292
398.081
397.872
397.665
397.461
397.26
397.061
396.865
396.672
396.482
396.295
396.112
395.932
395.757
395.585
395.416
395.25
395.086
394.924
394.762
394.599
394.436
394.274
394.374
394.482
394.587
394.686
394.778
400
400
400
400
400
399.81
399.601
399.384
399.163
398.942
398.723
398.506
398.293
398.081
397.872
397.666
397.463
397.262
397.064
396.869
396.677
396.487
396.3
396.117
395.938
395.762
395.59
395.421
395.254
395.09
394.927
394.765
394.601
394.438
394.275
394.375
394.483
394.588
394.687
394.779
400
400
400
400
400
399.81
399.602
399.385
399.164
398.943
398.724
398.508
398.294
398.083
397.875
397.669
397.467
397.267
397.07
396.876
396.684
396.495
396.309
396.126
395.947
395.771
395.598
395.428
395.261
395.096
394.933
394.769
394.606
394.442
394.279
394.379
394.487
394.592
394.691
394.783
400
400
400
400
400
399.81
399.602
399.385
399.164
398.943
398.724
398.508
398.295
398.084
397.876
397.672
397.47
397.271
397.075
396.881
396.69
396.502
396.316
396.133
395.954
395.778
395.604
395.434
395.266
395.1
394.936
394.772
394.608
394.444
394.281
394.381
394.489
394.594
394.693
394.785
400
400
400
400
400
399.81
399.603
399.386
399.166
398.945
398.726
398.51
398.297
398.087
397.88
397.676
397.476
397.278
397.083
396.89
396.7
396.512
396.327
396.144
395.965
395.788
395.615
395.444
395.275
395.108
394.943
394.779
394.615
394.45
394.288
394.388
394.495
394.601
394.7
394.791
400
400
400
400
400
399.811
399.603
399.386
399.166
398.945
398.727
398.51
398.298
398.088
397.882
397.678
397.478
397.282
397.088
396.896
396.706
396.519
396.334
396.151
395.972
395.795
395.621
395.449
395.279
395.112
394.946
394.781
394.616
394.452
394.289
394.389
394.497
394.602
394.701
394.793
400
400
400
400
400
399.811
399.604
399.388
399.168
398.948
398.73
398.514
398.301
398.092
397.886
397.683
397.484
397.288
397.094
396.903
396.714
396.527
396.342
396.159
395.979
395.802
395.627
395.454
395.283
395.114
394.946
394.78
394.615
394.45
394.286
394.386
394.494
394.599
394.698
394.789
400
400
400
400
400
399.811
399.604
399.388
399.168
398.947
398.728
398.512
398.298
398.088
397.881
397.677
397.477
397.28
397.086
396.895
396.704
396.516
396.329
396.144
395.962
395.783
395.605
395.429
395.255
395.082
394.912
394.742
394.574
394.406
394.24
394.34
394.447
394.553
394.651
394.743
400
400
400
400
400
399.812
399.605
399.388
399.166
398.944
398.722
398.503
398.285
398.071
397.86
397.651
397.446
397.244
397.045
396.847
396.651
396.455
396.262
396.07
395.88
395.693
395.506
395.321
395.138
394.957
394.777
394.598
394.42
394.243
394.067
394.168
394.277
394.383
394.482
394.574
400
400
400
400
400
399.807
399.594
399.368
399.136
398.902
398.667
398.433
398.199
397.968
397.738
397.511
397.286
397.064
396.843
396.624
396.405
396.187
395.969
395.753
395.539
395.325
395.113
394.902
394.692
394.484
394.276
394.07
393.865
393.66
393.457
393.57
393.692
393.81
393.917
394.018
400
400
400
400
399.999
399.775
399.522
399.253
398.975
398.692
398.407
398.122
397.837
397.553
397.27
396.988
396.708
396.431
396.154
395.878
395.602
395.326
395.05
394.776
394.503
394.231
393.959
393.689
393.42
393.152
392.886
392.621
392.356
392.092
391.832
392.081
392.319
392.532
392.72
392.884
400
400
400
400
400
399.858
399.695
399.515
399.319
399.11
398.89
398.662
398.427
398.186
397.94
397.692
397.44
397.186
396.93
396.673
396.416
396.158
395.9
395.64
395.379
395.117
394.855
394.593
394.332
394.071
393.811
393.551
393.293
393.036
392.781
392.853
392.946
393.049
393.155
393.253
400
400
400
400
400
399.877
399.741
399.593
399.434
399.266
399.092
398.911
398.726
398.538
398.347
398.154
397.959
397.763
397.566
397.369
397.172
396.974
396.777
396.579
396.38
396.182
395.983
395.785
395.587
395.39
395.194
394.998
394.803
394.609
394.416
394.415
394.428
394.452
394.482
394.517
400
400
400
400
400
399.88
399.748
399.605
399.454
399.297
399.133
398.966
398.795
398.622
398.448
398.272
398.096
397.92
397.743
397.568
397.392
397.218
397.044
396.87
396.697
396.523
396.351
396.179
396.008
395.838
395.668
395.5
395.333
395.167
395.003
395.003
395.014
395.035
395.06
395.09
400
400
400
400
400
399.88
399.747
399.605
399.455
399.299
399.137
398.972
398.805
398.635
398.465
398.294
398.123
397.951
397.78
397.61
397.441
397.273
397.105
396.939
396.773
396.608
396.443
396.28
396.117
395.956
395.796
395.637
395.479
395.323
395.168
395.171
395.185
395.206
395.233
395.264
400
400
400
400
400
399.879
399.747
399.605
399.455
399.299
399.139
398.974
398.808
398.639
398.47
398.3
398.129
397.958
397.788
397.619
397.451
397.285
397.119
396.954
396.79
396.627
396.465
396.305
396.145
395.987
395.829
395.674
395.519
395.366
395.214
395.218
395.232
395.255
395.282
395.314
400
400
400
400
400
399.879
399.746
399.603
399.453
399.297
399.136
398.972
398.805
398.637
398.467
398.296
398.125
397.954
397.784
397.615
397.446
397.279
397.113
396.948
396.784
396.622
396.46
396.3
396.141
395.983
395.827
395.672
395.518
395.366
395.215
395.22
395.235
395.257
395.285
395.317
400
400
400
400
400
399.879
399.746
399.603
399.453
399.297
399.137
398.973
398.806
398.637
398.468
398.297
398.126
397.954
397.783
397.613
397.444
397.277
397.11
396.945
396.78
396.617
396.456
396.296
396.137
395.979
395.823
395.668
395.515
395.363
395.213
395.217
395.232
395.255
395.282
395.315
400
400
400
400
400
399.878
399.745
399.602
399.452
399.296
399.136
398.972
398.805
398.637
398.467
398.295
398.124
397.952
397.78
397.609
397.439
397.271
397.103
396.937
396.772
396.609
396.447
396.286
396.128
395.97
395.814
395.659
395.506
395.354
395.204
395.208
395.223
395.246
395.274
395.307
400
400
400
400
400
399.878
399.745
399.602
399.452
399.297
399.137
398.973
398.807
398.638
398.468
398.297
398.125
397.953
397.781
397.609
397.439
397.269
397.101
396.934
396.769
396.605
396.443
396.282
396.123
395.966
395.81
395.655
395.502
395.35
395.199
395.204
395.219
395.242
395.27
395.302
400
400
400
400
400
399.878
399.745
399.602
399.452
399.297
399.137
398.973
398.807
398.638
398.468
398.297
398.124
397.952
397.779
397.607
397.436
397.266
397.097
396.929
396.764
396.599
396.437
396.276
396.117
395.96
395.803
395.649
395.496
395.344
395.193
395.198
395.213
395.236
395.264
395.296
400
400
400
400
400
399.878
399.745
399.602
399.453
399.298
399.138
398.974
398.808
398.64
398.469
398.298
398.125
397.952
397.779
397.606
397.435
397.264
397.095
396.927
396.761
396.597
396.434
396.273
396.114
395.957
395.801
395.647
395.494
395.342
395.191
395.196
395.21
395.233
395.261
395.294
400
400
400
400
400
399.879
399.745
399.603
399.453
399.298
399.138
398.974
398.808
398.639
398.469
398.297
398.124
397.95
397.777
397.604
397.433
397.262
397.092
396.924
396.758
396.593
396.431
396.27
396.111
395.954
395.798
395.644
395.491
395.339
395.188
395.193
395.208
395.23
395.258
395.291
400
400
400
400
400
399.879
399.746
399.604
399.454
399.299
399.139
398.975
398.808
398.639
398.469
398.297
398.123
397.95
397.776
397.604
397.432
397.261
397.092
396.923
396.757
396.593
396.43
396.27
396.111
395.954
395.798
395.644
395.491
395.339
395.188
395.193
395.208
395.23
395.258
395.291
400
400
400
400
400
399.879
399.746
399.604
399.455
399.299
399.139
398.975
398.808
398.638
398.467
398.295
398.122
397.948
397.775
397.602
397.431
397.26
397.09
396.922
396.756
396.591
396.429
396.269
396.11
395.953
395.798
395.644
395.492
395.339
395.188
395.193
395.208
395.23
395.258
395.291
400
400
400
400
400
399.879
399.747
399.605
399.455
399.3
399.139
398.974
398.807
398.637
398.466
398.293
398.12
397.946
397.773
397.601
397.429
397.259
397.089
396.921
396.755
396.591
396.429
396.269
396.11
395.954
395.799
395.645
395.493
395.341
395.189
395.194
395.209
395.231
395.259
395.292
400
400
400
400
400
399.88
399.747
399.606
399.456
399.3
399.139
398.974
398.806
398.636
398.465
398.292
398.118
397.945
397.771
397.599
397.427
397.257
397.087
396.919
396.753
396.589
396.428
396.268
396.11
395.954
395.799
395.646
395.494
395.341
395.189
395.194
395.209
395.232
395.26
395.292
400
400
400
400
400
399.88
399.748
399.606
399.456
399.3
399.139
398.973
398.805
398.635
398.463
398.29
398.117
397.943
397.769
397.597
397.425
397.255
397.085
396.917
396.751
396.588
396.426
396.267
396.11
395.954
395.8
395.647
395.494
395.341
395.189
395.194
395.209
395.231
395.259
395.292
400
400
400
400
400
399.88
399.748
399.607
399.457
399.3
399.139
398.973
398.805
398.635
398.463
398.29
398.116
397.942
397.769
397.596
397.425
397.254
397.084
396.916
396.751
396.587
396.426
396.268
396.111
395.955
395.801
395.648
395.495
395.342
395.19
395.194
395.209
395.232
395.26
395.293
400
400
400
400
400
399.88
399.749
399.607
399.457
399.3
399.139
398.973
398.805
398.634
398.462
398.29
398.116
397.942
397.769
397.596
397.424
397.253
397.084
396.916
396.751
396.588
396.427
396.268
396.112
395.956
395.802
395.649
395.496
395.343
395.19
395.194
395.209
395.232
395.26
395.293
400
400
400
400
400
399.88
399.749
399.607
399.457
399.3
399.139
398.973
398.805
398.635
398.463
398.291
398.117
397.944
397.771
397.599
397.427
397.256
397.087
396.92
396.755
396.592
396.431
396.273
396.116
395.961
395.807
395.653
395.5
395.346
395.193
395.198
395.212
395.235
395.263
395.296
400
400
400
400
400
399.881
399.749
399.608
399.457
399.301
399.139
398.974
398.806
398.636
398.464
398.291
398.119
397.946
397.773
397.601
397.43
397.26
397.091
396.924
396.759
396.596
396.436
396.277
396.12
395.964
395.81
395.656
395.502
395.348
395.195
395.199
395.214
395.237
395.264
395.297
400
400
400
400
400
399.881
399.75
399.608
399.458
399.301
399.14
398.975
398.807
398.637
398.466
398.294
398.122
397.95
397.778
397.607
397.436
397.267
397.098
396.932
396.767
396.604
396.443
396.284
396.127
395.971
395.816
395.662
395.508
395.353
395.2
395.204
395.219
395.241
395.269
395.302
400
400
400
400
400
399.881
399.75
399.608
399.458
399.302
399.14
398.975
398.808
398.638
398.467
398.296
398.124
397.953
397.781
397.611
397.441
397.272
397.104
396.937
396.772
396.61
396.448
396.289
396.131
395.975
395.82
395.665
395.511
395.356
395.202
395.207
395.221
395.244
395.272
395.304
400
400
400
400
400
399.881
399.75
399.609
399.459
399.303
399.142
398.977
398.81
398.641
398.471
398.3
398.129
397.958
397.788
397.618
397.449
397.281
397.113
396.947
396.782
396.62
396.458
396.299
396.14
395.984
395.828
395.673
395.518
395.364
395.21
395.214
395.229
395.251
395.279
395.311
400
400
400
400
400
399.881
399.75
399.609
399.459
399.303
399.142
398.977
398.81
398.642
398.472
398.301
398.131
397.961
397.791
397.622
397.454
397.285
397.118
396.952
396.788
396.625
396.463
396.303
396.145
395.987
395.831
395.675
395.52
395.365
395.211
395.216
395.23
395.252
395.28
395.312
400
400
400
400
400
399.881
399.751
399.61
399.461
399.305
399.145
398.98
398.813
398.645
398.475
398.305
398.136
397.966
397.797
397.628
397.46
397.292
397.125
396.959
396.794
396.631
396.469
396.308
396.148
395.99
395.832
395.676
395.52
395.364
395.21
395.213
395.227
395.249
395.276
395.308
400
400
400
400
400
399.882
399.751
399.61
399.461
399.304
399.143
398.978
398.811
398.641
398.471
398.3
398.129
397.959
397.789
397.619
397.45
397.28
397.111
396.944
396.777
396.611
396.447
396.283
396.121
395.959
395.799
395.639
395.48
395.322
395.164
395.166
395.18
395.201
395.228
395.259
400
400
400
400
400
399.882
399.751
399.61
399.459
399.302
399.139
398.971
398.801
398.628
398.453
398.278
398.102
397.927
397.752
397.576
397.401
397.225
397.049
396.875
396.7
396.527
396.354
396.182
396.011
395.841
395.671
395.502
395.334
395.166
394.999
394.999
395.01
395.031
395.056
395.086
400
400
400
400
400
399.879
399.744
399.597
399.438
399.271
399.097
398.916
398.732
398.543
398.352
398.159
397.964
397.769
397.573
397.376
397.179
396.98
396.781
396.583
396.384
396.185
395.987
395.789
395.591
395.394
395.197
395.001
394.805
394.61
394.415
394.413
394.426
394.45
394.48
394.514
400
400
400
400
400
399.859
399.698
399.519
399.323
399.115
398.895
398.667
398.432
398.19
397.945
397.696
397.445
397.192
396.938
396.682
396.424
396.164
395.904
395.643
395.382
395.121
394.859
394.598
394.337
394.076
393.816
393.556
393.297
393.038
392.78
392.851
392.944
393.047
393.153
393.251
400
400
400
400
400
399.891
399.771
399.641
399.499
399.347
399.185
399.013
398.832
398.644
398.449
398.247
398.039
397.826
397.609
397.388
397.163
396.936
396.705
396.471
396.235
395.997
395.756
395.515
395.272
395.028
394.784
394.539
394.294
394.049
393.805
393.8
393.808
393.828
393.858
393.883
400
400
400
400
400
399.905
399.804
399.696
399.581
399.46
399.332
399.199
399.061
398.918
398.771
398.619
398.464
398.306
398.146
397.983
397.818
397.651
397.482
397.312
397.14
396.966
396.792
396.616
396.44
396.264
396.087
395.91
395.732
395.555
395.378
395.34
395.307
395.282
395.263
395.245
400
400
400
400
400
399.907
399.808
399.705
399.595
399.481
399.362
399.239
399.112
398.982
398.848
398.712
398.574
398.433
398.291
398.147
398.003
397.857
397.711
397.563
397.415
397.265
397.116
396.966
396.816
396.665
396.515
396.365
396.215
396.066
395.917
395.887
395.862
395.841
395.825
395.812
400
400
400
400
400
399.907
399.808
399.705
399.596
399.483
399.366
399.244
399.12
398.992
398.862
398.73
398.595
398.459
398.321
398.183
398.044
397.904
397.764
397.623
397.482
397.34
397.198
397.056
396.914
396.772
396.631
396.49
396.349
396.209
396.069
396.044
396.022
396.005
395.992
395.983
400
400
400
400
400
399.907
399.808
399.704
399.596
399.483
399.367
399.246
399.122
398.995
398.866
398.734
398.6
398.465
398.328
398.191
398.053
397.915
397.777
397.637
397.498
397.358
397.219
397.079
396.94
396.801
396.662
396.524
396.386
396.249
396.113
396.089
396.069
396.053
396.041
396.034
400
400
400
400
400
399.906
399.807
399.703
399.595
399.482
399.365
399.244
399.12
398.993
398.863
398.731
398.597
398.462
398.325
398.187
398.049
397.911
397.772
397.633
397.494
397.354
397.215
397.076
396.937
396.799
396.661
396.523
396.386
396.25
396.114
396.091
396.072
396.056
396.045
396.039
400
400
400
400
400
399.906
399.807
399.703
399.595
399.482
399.365
399.245
399.121
398.994
398.864
398.732
398.598
398.462
398.325
398.187
398.048
397.909
397.77
397.63
397.491
397.351
397.212
397.073
396.934
396.796
396.658
396.52
396.384
396.247
396.112
396.089
396.07
396.055
396.043
396.037
400
400
400
400
400
399.906
399.807
399.703
399.594
399.481
399.365
399.244
399.12
398.993
398.863
398.731
398.596
398.459
398.322
398.183
398.044
397.904
397.764
397.624
397.484
397.344
397.204
397.065
396.926
396.788
396.65
396.512
396.375
396.239
396.104
396.081
396.061
396.046
396.035