/*--------------------------------*- C++ -*----------------------------------*\
| =========                 |                                                 |
| \\      /  F ield         | OpenFOAM: The Open Source CFD Toolbox           |
|  \\    /   O peration     | Version:  5.0                                   |
|   \\  /    A nd           | Web:      www.OpenFOAM.org                      |
|    \\/     M anipulation  |                                                 |
\*---------------------------------------------------------------------------*/
FoamFile
{
    version     2.0;
    format      ascii;
    class       volVectorField;
    location    "350/porous";
    object      U;
}
// * * * * * * * * * * * * * * * * * * * * * * * * * * * * * * * * * * * * * //

dimensions      [0 1 -1 0 0 0 0];

internalField   nonuniform List<vector> 
36000
(
(0.00555056 7.02127e-05 0.000289042)
(0.00340903 4.42548e-05 6.71224e-05)
(0.00220329 3.69639e-05 1.37094e-05)
(0.00180686 3.07685e-05 1.60336e-06)
(0.00158038 2.55944e-05 1.9377e-07)
(0.00143087 2.16609e-05 -4.36079e-08)
(0.00131992 1.86587e-05 -9.9206e-08)
(0.00123221 1.63201e-05 -1.35694e-07)
(0.00116052 1.44475e-05 -1.60065e-07)
(0.00110042 1.29121e-05 -1.72949e-07)
(0.00104907 1.16278e-05 -1.7788e-07)
(0.00100455 1.05356e-05 -1.77418e-07)
(0.000965469 9.59367e-06 -1.734e-07)
(0.000930829 8.77161e-06 -1.67057e-07)
(0.000899864 8.04684e-06 -1.59235e-07)
(0.000871988 7.40224e-06 -1.5051e-07)
(0.000846739 6.82465e-06 -1.41275e-07)
(0.000823745 6.30377e-06 -1.31816e-07)
(0.000802709 5.83144e-06 -1.22331e-07)
(0.000783383 5.40111e-06 -1.12949e-07)
(0.000765565 5.00745e-06 -1.03781e-07)
(0.000749081 4.64608e-06 -9.48882e-08)
(0.000733787 4.31336e-06 -8.63199e-08)
(0.00071956 4.00621e-06 -7.81026e-08)
(0.000706292 3.72202e-06 -7.02615e-08)
(0.000693892 3.45857e-06 -6.27971e-08)
(0.000682279 3.21394e-06 -5.57175e-08)
(0.000671382 2.9864e-06 -4.90116e-08)
(0.000661139 2.7747e-06 -4.27049e-08)
(0.000651493 2.5771e-06 -3.67112e-08)
(0.000642403 2.39383e-06 -3.12274e-08)
(0.000633802 2.22051e-06 -2.57326e-08)
(0.000625708 2.06543e-06 -2.15686e-08)
(0.000617939 1.90377e-06 -1.5217e-08)
(0.000610836 1.79739e-06 -1.57824e-08)
(0.000603414 1.58273e-06 5.49921e-10)
(0.0005981 1.66369e-06 -2.75082e-08)
(0.000588655 1.05341e-06 6.11706e-08)
(0.000590157 1.87866e-06 -1.51374e-07)
(0.000568338 1.40684e-07 5.96217e-07)
(0.00562429 8.38019e-05 0.000295874)
(0.00352515 5.57859e-05 6.94443e-05)
(0.00238476 4.95062e-05 1.59396e-05)
(0.00202138 4.17585e-05 3.37245e-06)
(0.00182312 3.58425e-05 1.57099e-06)
(0.00169624 3.13323e-05 1.11423e-06)
(0.0016036 2.77807e-05 9.06686e-07)
(0.00153095 2.49103e-05 7.56705e-07)
(0.00147176 2.25175e-05 6.42939e-07)
(0.00142217 2.04752e-05 5.57474e-07)
(0.00137972 1.86995e-05 4.92089e-07)
(0.00134278 1.71334e-05 4.41032e-07)
(0.00131018 1.57368e-05 4.00297e-07)
(0.00128111 1.44804e-05 3.67145e-07)
(0.00125493 1.33422e-05 3.39655e-07)
(0.00123117 1.23054e-05 3.16472e-07)
(0.00120947 1.13566e-05 2.96624e-07)
(0.00118953 1.04854e-05 2.79391e-07)
(0.00117111 9.68298e-06 2.64243e-07)
(0.00115403 8.94227e-06 2.50774e-07)
(0.00113812 8.25726e-06 2.38677e-07)
(0.00112326 7.62283e-06 2.27708e-07)
(0.00110934 7.03457e-06 2.17683e-07)
(0.00109625 6.48864e-06 2.08454e-07)
(0.00108393 5.98166e-06 1.99901e-07)
(0.00107229 5.51062e-06 1.91929e-07)
(0.00106128 5.07293e-06 1.84461e-07)
(0.00105085 4.66612e-06 1.7743e-07)
(0.00104095 4.28845e-06 1.70779e-07)
(0.00103154 3.93732e-06 1.64485e-07)
(0.00102258 3.61333e-06 1.58437e-07)
(0.00101402 3.30958e-06 1.52778e-07)
(0.00100588 3.03967e-06 1.4702e-07)
(0.000998027 2.76303e-06 1.4234e-07)
(0.000990681 2.58232e-06 1.35599e-07)
(0.000983204 2.21604e-06 1.35141e-07)
(0.000977181 2.39158e-06 1.18199e-07)
(0.000968359 1.17752e-06 1.53384e-07)
(0.000967691 3.33845e-06 1.21809e-08)
(0.000948247 -2.28811e-06 6.5524e-07)
(0.00561665 4.31986e-05 0.000294818)
(0.00351435 3.87549e-05 6.83114e-05)
(0.00239037 3.89918e-05 1.53282e-05)
(0.00203483 3.50479e-05 2.96223e-06)
(0.00184471 3.11662e-05 1.26848e-06)
(0.00172533 2.78118e-05 8.86459e-07)
(0.00163969 2.49083e-05 7.21894e-07)
(0.00157364 2.24204e-05 5.97651e-07)
(0.00152072 2.02732e-05 4.99537e-07)
(0.00147707 1.84035e-05 4.23727e-07)
(0.00144027 1.67601e-05 3.64417e-07)
(0.00140869 1.53028e-05 3.17308e-07)
(0.00138119 1.40001e-05 2.79305e-07)
(0.00135694 1.28275e-05 2.48197e-07)
(0.00133534 1.17655e-05 2.22414e-07)
(0.00131593 1.07986e-05 2.00819e-07)
(0.00129834 9.91437e-06 1.82559e-07)
(0.00128229 9.10282e-06 1.66997e-07)
(0.00126757 8.35566e-06 1.53635e-07)
(0.00125398 7.66607e-06 1.42093e-07)
(0.00124139 7.02837e-06 1.32061e-07)
(0.00122967 6.43774e-06 1.23294e-07)
(0.00121871 5.89009e-06 1.15591e-07)
(0.00120844 5.38185e-06 1.08798e-07)
(0.00119878 4.90998e-06 1.02771e-07)
(0.00118967 4.47176e-06 9.74012e-08)
(0.00118106 4.0649e-06 9.26007e-08)
(0.0011729 3.68729e-06 8.82902e-08)
(0.00116515 3.33747e-06 8.43873e-08)
(0.00115778 3.0133e-06 8.08705e-08)
(0.00115076 2.71552e-06 7.76227e-08)
(0.00114404 2.43817e-06 7.47568e-08)
(0.00113764 2.19372e-06 7.18413e-08)
(0.00113147 1.94539e-06 6.98337e-08)
(0.00112567 1.787e-06 6.62686e-08)
(0.00111978 1.45369e-06 6.72032e-08)
(0.00111491 1.64672e-06 5.79124e-08)
(0.00110822 3.88227e-07 7.56301e-08)
(0.00110678 2.94306e-06 1.46139e-08)
(0.00109305 -4.62511e-06 3.56653e-07)
(0.00560903 3.7218e-05 0.000295464)
(0.00349577 4.16684e-05 6.89141e-05)
(0.00237452 4.09011e-05 1.5737e-05)
(0.00202133 3.65959e-05 3.25869e-06)
(0.00183431 3.22541e-05 1.48091e-06)
(0.00171797 2.84864e-05 1.04272e-06)
(0.00163519 2.52718e-05 8.38265e-07)
(0.00157184 2.25653e-05 6.87112e-07)
(0.00152146 2.02753e-05 5.71009e-07)
(0.00148021 1.83189e-05 4.8309e-07)
(0.0014457 1.66287e-05 4.15582e-07)
(0.0014163 1.51519e-05 3.62874e-07)
(0.0013909 1.38477e-05 3.20971e-07)
(0.00136869 1.26849e-05 2.8708e-07)
(0.00134905 1.16392e-05 2.59239e-07)
(0.00133154 1.0692e-05 2.36041e-07)
(0.00131579 9.82855e-06 2.16455e-07)
(0.00130154 9.03725e-06 1.99732e-07)
(0.00128855 8.30892e-06 1.85288e-07)
(0.00127665 7.63615e-06 1.72698e-07)
(0.0012657 7.01295e-06 1.61623e-07)
(0.00125557 6.43437e-06 1.51799e-07)
(0.00124617 5.89634e-06 1.43019e-07)
(0.00123741 5.3954e-06 1.35114e-07)
(0.00122921 4.92865e-06 1.27955e-07)
(0.00122153 4.4936e-06 1.21428e-07)
(0.0012143 4.0882e-06 1.1545e-07)
(0.00120749 3.71059e-06 1.09946e-07)
(0.00120105 3.35959e-06 1.04848e-07)
(0.00119496 3.03331e-06 1.00122e-07)
(0.00118917 2.7328e-06 9.56893e-08)
(0.00118367 2.45233e-06 9.16002e-08)
(0.00117844 2.20486e-06 8.75966e-08)
(0.00117342 1.95391e-06 8.4215e-08)
(0.00116869 1.79337e-06 8.00655e-08)
(0.00116398 1.46531e-06 7.82991e-08)
(0.0011599 1.64592e-06 7.1988e-08)
(0.00115485 4.86639e-07 7.39892e-08)
(0.0011527 2.82526e-06 5.99911e-08)
(0.00114327 -3.84583e-06 1.80938e-07)
(0.00560508 2.48873e-05 0.00029527)
(0.00348634 3.19097e-05 6.8561e-05)
(0.00236678 3.29948e-05 1.53586e-05)
(0.00201478 3.08458e-05 2.95256e-06)
(0.00182897 2.80114e-05 1.23554e-06)
(0.00171363 2.52317e-05 8.45313e-07)
(0.00163167 2.26644e-05 6.75982e-07)
(0.00156903 2.03784e-05 5.50668e-07)
(0.00151928 1.83655e-05 4.53599e-07)
(0.00147863 1.65966e-05 3.79675e-07)
(0.00144469 1.50382e-05 3.22502e-07)
(0.00141587 1.36585e-05 2.77485e-07)
(0.00139103 1.243e-05 2.41377e-07)
(0.00136938 1.13296e-05 2.11915e-07)
(0.00135031 1.03382e-05 1.8753e-07)
(0.00133337 9.44017e-06 1.67095e-07)
(0.0013182 8.62271e-06 1.49784e-07)
(0.00130453 7.87539e-06 1.34989e-07)
(0.00129212 7.18968e-06 1.22241e-07)
(0.00128081 6.55852e-06 1.11185e-07)
(0.00127044 5.97609e-06 1.01541e-07)
(0.0012609 5.43754e-06 9.30735e-08)
(0.00125207 4.93878e-06 8.56141e-08)
(0.00124389 4.47635e-06 7.9007e-08)
(0.00123627 4.04734e-06 7.31369e-08)
(0.00122916 3.64923e-06 6.78978e-08)
(0.0012225 3.27995e-06 6.32082e-08)
(0.00121625 2.93763e-06 5.90012e-08)
(0.00121036 2.6211e-06 5.52081e-08)
(0.00120482 2.32856e-06 5.17943e-08)
(0.00119958 2.06098e-06 4.86819e-08)
(0.00119461 1.8132e-06 4.58993e-08)
(0.00118991 1.5971e-06 4.32731e-08)
(0.00118542 1.38042e-06 4.10926e-08)
(0.00118119 1.2472e-06 3.86638e-08)
(0.00117707 9.73275e-07 3.71907e-08)
(0.00117327 1.14607e-06 3.54727e-08)
(0.0011693 2.11284e-07 2.86483e-08)
(0.00116627 2.18523e-06 5.34461e-08)
(0.00116037 -2.89476e-06 2.88407e-08)
(0.005603 2.06431e-05 0.000295425)
(0.00348001 3.00625e-05 6.88203e-05)
(0.0023591 3.20574e-05 1.56022e-05)
(0.00200672 3.05767e-05 3.1746e-06)
(0.00182116 2.80205e-05 1.4276e-06)
(0.0017063 2.52901e-05 1.00837e-06)
(0.00162491 2.26849e-05 8.13358e-07)
(0.00156283 2.03337e-05 6.66821e-07)
(0.00151364 1.82595e-05 5.52769e-07)
(0.0014735 1.64447e-05 4.65392e-07)
(0.00144003 1.48584e-05 3.97614e-07)
(0.00141164 1.34671e-05 3.44217e-07)
(0.00138721 1.22403e-05 3.01453e-07)
(0.00136593 1.11517e-05 2.66664e-07)
(0.0013472 1.01793e-05 2.37967e-07)
(0.00133059 9.30496e-06 2.13991e-07)
(0.00131573 8.51399e-06 1.93727e-07)
(0.00130234 7.79448e-06 1.7643e-07)
(0.00129022 7.13679e-06 1.61521e-07)
(0.00127918 6.53308e-06 1.48563e-07)
(0.00126908 5.97696e-06 1.37211e-07)
(0.00125979 5.46319e-06 1.27193e-07)
(0.00125122 4.98747e-06 1.18291e-07)
(0.00124328 4.5462e-06 1.10335e-07)
(0.00123591 4.13642e-06 1.03187e-07)
(0.00122904 3.75562e-06 9.67214e-08)
(0.00122262 3.40179e-06 9.08523e-08)
(0.0012166 3.07316e-06 8.54993e-08)
(0.00121096 2.76864e-06 8.05966e-08)
(0.00120565 2.48664e-06 7.60885e-08)
(0.00120064 2.22813e-06 7.19211e-08)
(0.00119591 1.98863e-06 6.80775e-08)
(0.00119143 1.77911e-06 6.44809e-08)
(0.00118719 1.57174e-06 6.11623e-08)
(0.00118315 1.44056e-06 5.80684e-08)
(0.00117933 1.19793e-06 5.46977e-08)
(0.00117559 1.3321e-06 5.41958e-08)
(0.00117226 6.17375e-07 3.93671e-08)
(0.0011685 2.12832e-06 8.17268e-08)
(0.00116466 -1.33723e-06 -2.13652e-08)
(0.00560161 1.56281e-05 0.000295385)
(0.00347577 2.40841e-05 6.87263e-05)
(0.00235408 2.62754e-05 1.54538e-05)
(0.00200186 2.55913e-05 3.02374e-06)
(0.00181672 2.38356e-05 1.2881e-06)
(0.00170234 2.17705e-05 8.83479e-07)
(0.00162138 1.96993e-05 7.03198e-07)
(0.00155968 1.77658e-05 5.7022e-07)
(0.00151079 1.60177e-05 4.68039e-07)
(0.0014709 1.446e-05 3.90701e-07)
(0.00143764 1.30792e-05 3.31265e-07)
(0.00140942 1.18554e-05 2.84736e-07)
(0.00138513 1.07677e-05 2.47595e-07)
(0.00136397 9.79687e-06 2.17412e-07)
(0.00134537 8.92596e-06 1.92495e-07)
(0.00132885 8.14063e-06 1.71641e-07)
(0.00131409 7.42891e-06 1.53974e-07)
(0.0013008 6.78087e-06 1.3886e-07)
(0.00128876 6.18837e-06 1.25806e-07)
(0.0012778 5.64464e-06 1.14446e-07)
(0.00126778 5.14417e-06 1.0449e-07)
(0.00125858 4.68233e-06 9.57142e-08)
(0.00125009 4.25532e-06 8.793e-08)
(0.00124223 3.85992e-06 8.09939e-08)
(0.00123494 3.49345e-06 7.47918e-08)
(0.00122815 3.15368e-06 6.92159e-08)
(0.00122181 2.83877e-06 6.41926e-08)
(0.00121588 2.54714e-06 5.96449e-08)
(0.00121031 2.27782e-06 5.55188e-08)
(0.00120508 2.02943e-06 5.17684e-08)
(0.00120015 1.80291e-06 4.83483e-08)
(0.0011955 1.59455e-06 4.52165e-08)
(0.00119111 1.41404e-06 4.23794e-08)
(0.00118696 1.23866e-06 3.96683e-08)
(0.00118299 1.1308e-06 3.75565e-08)
(0.00117931 9.41443e-07 3.42472e-08)
(0.00117553 1.05903e-06 3.63167e-08)
(0.00117262 5.60571e-07 1.79052e-08)
(0.00116836 1.71684e-06 7.23003e-08)
(0.00116616 -5.05805e-07 -7.2766e-08)
(0.00560094 1.2886e-05 0.000295428)
(0.00347324 2.10616e-05 6.88154e-05)
(0.00235028 2.37315e-05 1.55517e-05)
(0.00199752 2.36639e-05 3.12786e-06)
(0.00181221 2.23869e-05 1.39143e-06)
(0.00169789 2.06365e-05 9.8094e-07)
(0.00161708 1.87667e-05 7.92587e-07)
(0.0015556 1.69605e-05 6.50987e-07)
(0.00150694 1.52965e-05 5.40515e-07)
(0.00146728 1.37994e-05 4.55635e-07)
(0.00143424 1.24677e-05 3.89542e-07)
(0.00140622 1.1288e-05 3.37252e-07)
(0.00138212 1.02427e-05 2.95186e-07)
(0.00136113 9.31396e-06 2.60816e-07)
(0.00134268 8.48528e-06 2.32347e-07)
(0.0013263 7.74219e-06 2.08478e-07)
(0.00131167 7.07238e-06 1.88247e-07)
(0.00129849 6.46554e-06 1.70929e-07)
(0.00128656 5.91314e-06 1.55986e-07)
(0.0012757 5.40813e-06 1.42978e-07)
(0.00126577 4.94471e-06 1.3158e-07)
(0.00125665 4.51812e-06 1.21517e-07)
(0.00124824 4.12439e-06 1.12587e-07)
(0.00124046 3.76026e-06 1.04614e-07)
(0.00123323 3.42303e-06 9.74568e-08)
(0.00122651 3.11044e-06 9.10001e-08)
(0.00122023 2.8207e-06 8.51504e-08)
(0.00121436 2.55229e-06 7.9825e-08)
(0.00120885 2.30427e-06 7.49636e-08)
(0.00120368 2.07542e-06 7.05044e-08)
(0.0011988 1.86657e-06 6.64081e-08)
(0.00119421 1.67477e-06 6.26045e-08)
(0.00118987 1.5084e-06 5.91567e-08)
(0.00118577 1.34955e-06 5.57345e-08)
(0.00118185 1.24933e-06 5.32051e-08)
(0.00117826 1.09347e-06 4.87482e-08)
(0.00117446 1.18058e-06 5.12941e-08)
(0.00117182 8.38975e-07 2.91206e-08)
(0.00116723 1.68466e-06 8.84215e-08)
(0.00116589 3.02405e-07 -8.10299e-08)
(0.00560043 1.0174e-05 0.000295418)
(0.00347131 1.70114e-05 6.87909e-05)
(0.0023474 1.94198e-05 1.54997e-05)
(0.00199439 1.95643e-05 3.06469e-06)
(0.00180912 1.86545e-05 1.32493e-06)
(0.00169498 1.72905e-05 9.14604e-07)
(0.00161442 1.57846e-05 7.28837e-07)
(0.00155318 1.43022e-05 5.91168e-07)
(0.00150474 1.29196e-05 4.85215e-07)
(0.00146528 1.16651e-05 4.04934e-07)
(0.00143241 1.05423e-05 3.43242e-07)
(0.00140453 9.54315e-06 2.94999e-07)
(0.00138054 8.65476e-06 2.56568e-07)
(0.00135966 7.86327e-06 2.25415e-07)
(0.00134128 7.1555e-06 1.99761e-07)
(0.00132498 6.51974e-06 1.78349e-07)
(0.0013104 5.94588e-06 1.60253e-07)
(0.00129727 5.42542e-06 1.44796e-07)
(0.00128539 4.95126e-06 1.31466e-07)
(0.00127457 4.51756e-06 1.19871e-07)
(0.00126468 4.11946e-06 1.09712e-07)
(0.00125559 3.75299e-06 1.00751e-07)
(0.00124721 3.41483e-06 9.28009e-08)
(0.00123945 3.10224e-06 8.57012e-08)
(0.00123226 2.81295e-06 7.93389e-08)
(0.00122556 2.54508e-06 7.36083e-08)
(0.00121931 2.29712e-06 6.84268e-08)
(0.00121346 2.0678e-06 6.37276e-08)
(0.00120797 1.85639e-06 5.94474e-08)
(0.00120282 1.66193e-06 5.55354e-08)
(0.00119797 1.4852e-06 5.19651e-08)
(0.0011934 1.32398e-06 4.86542e-08)
(0.00118908 1.18537e-06 4.57169e-08)
(0.00118502 1.05588e-06 4.26986e-08)
(0.0011811 9.76273e-07 4.07968e-08)
(0.00117758 8.61885e-07 3.6457e-08)
(0.00117375 9.37155e-07 4.04112e-08)
(0.00117132 7.24689e-07 1.6953e-08)
(0.00116654 1.36272e-06 8.12914e-08)
(0.00116594 5.43511e-07 -1.01921e-07)
(0.00560017 8.22274e-06 0.00029543)
(0.00347016 1.41092e-05 6.88215e-05)
(0.00234539 1.64737e-05 1.55359e-05)
(0.00199195 1.69033e-05 3.10737e-06)
(0.00180648 1.6352e-05 1.37214e-06)
(0.00169229 1.53172e-05 9.63377e-07)
(0.00161176 1.40886e-05 7.77199e-07)
(0.00155061 1.28303e-05 6.37811e-07)
(0.00150229 1.16276e-05 5.29371e-07)
(0.00146296 1.05188e-05 4.46225e-07)
(0.0014302 9.51658e-06 3.8155e-07)
(0.00140244 8.61946e-06 3.30387e-07)
(0.00137856 7.81958e-06 2.89207e-07)
(0.00135778 7.1065e-06 2.55521e-07)
(0.0013395 6.46946e-06 2.27576e-07)
(0.00132328 5.89832e-06 2.04105e-07)
(0.00130877 5.38408e-06 1.84185e-07)
(0.00129572 4.91899e-06 1.67105e-07)
(0.0012839 4.49649e-06 1.52343e-07)
(0.00127314 4.1111e-06 1.39484e-07)
(0.0012633 3.75824e-06 1.28203e-07)
(0.00125426 3.43411e-06 1.18242e-07)
(0.00124593 3.13558e-06 1.09399e-07)
(0.00123822 2.86004e-06 1.01501e-07)
(0.00123106 2.60533e-06 9.44174e-08)
(0.0012244 2.36969e-06 8.80298e-08)
(0.00121818 2.15169e-06 8.22482e-08)
(0.00121237 1.95014e-06 7.69918e-08)
(0.00120691 1.76435e-06 7.21993e-08)
(0.00120179 1.5935e-06 6.7807e-08)
(0.00119697 1.43824e-06 6.37894e-08)
(0.00119243 1.29691e-06 6.00359e-08)
(0.00118814 1.17531e-06 5.67085e-08)
(0.00118411 1.06357e-06 5.32469e-08)
(0.00118022 9.93307e-07 5.10618e-08)
(0.00117675 9.03457e-07 4.6065e-08)
(0.00117292 9.58152e-07 5.01352e-08)
(0.00117063 8.2478e-07 2.48483e-08)
(0.00116574 1.28604e-06 9.09185e-08)
(0.00116548 8.001e-07 -1.01986e-07)
(0.00559996 6.37934e-06 0.000295427)
(0.00346924 1.10402e-05 6.88153e-05)
(0.00234381 1.2993e-05 1.55186e-05)
(0.00199008 1.33998e-05 3.08331e-06)
(0.00180451 1.30075e-05 1.34402e-06)
(0.00169035 1.2205e-05 9.32566e-07)
(0.00160993 1.12315e-05 7.45154e-07)
(0.00154892 1.02247e-05 6.05695e-07)
(0.00150074 9.25751e-06 4.98002e-07)
(0.00146154 8.36396e-06 4.16137e-07)
(0.00142891 7.5557e-06 3.53053e-07)
(0.00140126 6.83242e-06 3.03627e-07)
(0.00137747 6.18801e-06 2.64206e-07)
(0.00135677 5.61407e-06 2.3224e-07)
(0.00133855 5.10177e-06 2.05921e-07)
(0.00132239 4.64282e-06 1.83963e-07)
(0.00130793 4.22985e-06 1.65419e-07)
(0.00129492 3.85652e-06 1.49598e-07)
(0.00128313 3.51746e-06 1.3596e-07)
(0.0012724 3.20824e-06 1.24116e-07)
(0.00126259 2.92515e-06 1.13739e-07)
(0.00125357 2.66515e-06 1.04592e-07)
(0.00124526 2.42571e-06 9.6476e-08)
(0.00123757 2.20476e-06 8.92353e-08)
(0.00123043 2.00059e-06 8.27406e-08)
(0.00122378 1.81179e-06 7.6888e-08)
(0.00121758 1.63726e-06 7.1594e-08)
(0.00121178 1.4761e-06 6.67827e-08)
(0.00120634 1.32778e-06 6.24039e-08)
(0.00120123 1.19169e-06 5.83906e-08)
(0.00119643 1.06845e-06 5.47319e-08)
(0.0011919 9.56933e-07 5.13107e-08)
(0.00118762 8.6178e-07 4.83148e-08)
(0.00118361 7.76085e-07 4.51262e-08)
(0.00117973 7.23762e-07 4.33264e-08)
(0.0011763 6.62172e-07 3.84509e-08)
(0.00117247 7.09042e-07 4.32749e-08)
(0.00117029 6.37466e-07 1.7563e-08)
(0.00116534 9.83089e-07 8.59808e-08)
(0.00116544 7.15598e-07 -1.12696e-07)
(0.00559985 4.82814e-06 0.00029543)
(0.00346868 8.44928e-06 6.88258e-05)
(0.00234275 1.00857e-05 1.55316e-05)
(0.00198873 1.05288e-05 3.09971e-06)
(0.00180301 1.03337e-05 1.3637e-06)
(0.00168879 9.78562e-06 9.54399e-07)
(0.00160837 9.07381e-06 7.68243e-07)
(0.0015474 8.31158e-06 6.29284e-07)
(0.00149928 7.56279e-06 5.21459e-07)
(0.00146014 6.86001e-06 4.38999e-07)
(0.00142758 6.21694e-06 3.7501e-07)
(0.0014 5.63655e-06 3.24483e-07)
(0.00137627 5.11625e-06 2.83873e-07)
(0.00135562 4.65083e-06 2.5069e-07)
(0.00133746 4.23418e-06 2.23175e-07)
(0.00132135 3.86026e-06 2.00075e-07)
(0.00130694 3.5235e-06 1.80465e-07)
(0.00129396 3.21899e-06 1.63654e-07)
(0.00128222 2.9425e-06 1.49115e-07)
(0.00127152 2.69048e-06 1.36448e-07)
(0.00126174 2.45992e-06 1.25328e-07)
(0.00125276 2.24833e-06 1.1551e-07)
(0.00124448 2.05363e-06 1.06787e-07)
(0.00123681 1.8741e-06 9.90035e-08)
(0.0012297 1.70831e-06 9.20157e-08)
(0.00122308 1.55508e-06 8.57203e-08)
(0.0012169 1.41348e-06 8.00198e-08)
(0.00121112 1.28275e-06 7.48406e-08)
(0.0012057 1.16244e-06 7.01182e-08)
(0.00120061 1.05206e-06 6.57875e-08)
(0.00119582 9.52066e-07 6.18386e-08)
(0.00119131 8.61681e-07 5.81403e-08)
(0.00118705 7.84398e-07 5.48986e-08)
(0.00118306 7.15554e-07 5.14381e-08)
(0.0011792 6.72382e-07 4.94535e-08)
(0.0011758 6.26104e-07 4.42134e-08)
(0.00117198 6.57747e-07 4.90162e-08)
(0.00116987 6.16645e-07 2.24088e-08)
(0.00116489 8.5554e-07 9.14019e-08)
(0.00116514 7.03171e-07 -1.11774e-07)
(0.00559976 3.35122e-06 0.000295428)
(0.00346827 5.87521e-06 6.88239e-05)
(0.00234197 7.04129e-06 1.5526e-05)
(0.00198774 7.35769e-06 3.09124e-06)
(0.00180193 7.22127e-06 1.35302e-06)
(0.0016877 6.82798e-06 9.41773e-07)
(0.00160731 6.31505e-06 7.54215e-07)
(0.0015464 5.76528e-06 6.14418e-07)
(0.00149835 5.22579e-06 5.06242e-07)
(0.0014593 4.72078e-06 4.23816e-07)
(0.00142681 4.26036e-06 3.60141e-07)
(0.00139929 3.84662e-06 3.10138e-07)
(0.00137562 3.47743e-06 2.70177e-07)
(0.00135502 3.14873e-06 2.37709e-07)
(0.00133691 2.8558e-06 2.10944e-07)
(0.00132083 2.594e-06 1.88585e-07)
(0.00130645 2.3591e-06 1.69693e-07)
(0.0012935 2.14737e-06 1.53559e-07)
(0.00128178 1.95565e-06 1.39655e-07)
(0.00127111 1.78129e-06 1.27569e-07)
(0.00126134 1.62206e-06 1.16986e-07)
(0.00125237 1.47615e-06 1.07655e-07)
(0.0012441 1.34204e-06 9.93778e-08)
(0.00123645 1.2185e-06 9.19878e-08)
(0.00122935 1.10452e-06 8.53662e-08)
(0.00122274 9.99282e-07 7.94004e-08)
(0.00121656 9.02118e-07 7.39972e-08)
(0.00121079 8.12518e-07 6.90885e-08)
(0.00120538 7.3019e-07 6.46185e-08)
(0.0012003 6.54831e-07 6.05171e-08)
(0.00119552 5.86789e-07 5.67825e-08)
(0.00119102 5.25618e-07 5.32794e-08)
(0.00118677 4.73775e-07 5.02312e-08)
(0.00118279 4.28378e-07 4.69291e-08)
(0.00117893 4.01068e-07 4.51557e-08)
(0.00117555 3.73718e-07 4.00064e-08)
(0.00117174 3.99135e-07 4.51802e-08)
(0.00116969 3.82994e-07 1.84586e-08)
(0.00116469 5.49646e-07 8.85162e-08)
(0.00116512 4.76586e-07 -1.17237e-07)
(0.00559971 1.99019e-06 0.000295428)
(0.00346803 3.50313e-06 6.88265e-05)
(0.00234151 4.23885e-06 1.553e-05)
(0.00198714 4.46391e-06 3.09678e-06)
(0.00180125 4.41942e-06 1.36009e-06)
(0.00168697 4.2144e-06 9.49988e-07)
(0.00160658 3.93052e-06 7.63281e-07)
(0.00154568 3.61758e-06 6.24064e-07)
(0.00149767 3.30468e-06 5.16179e-07)
(0.00145864 3.00747e-06 4.33803e-07)
(0.00142618 2.73311e-06 3.69985e-07)
(0.00139869 2.48382e-06 3.1969e-07)
(0.00137506 2.25913e-06 2.79342e-07)
(0.00135448 2.05726e-06 2.46432e-07)
(0.00133639 1.87589e-06 2.19189e-07)
(0.00132033 1.71265e-06 1.96349e-07)
(0.00130598 1.56525e-06 1.76982e-07)
(0.00129305 1.4317e-06 1.60394e-07)
(0.00128135 1.31023e-06 1.46065e-07)
(0.00127069 1.19938e-06 1.33581e-07)
(0.00126094 1.09786e-06 1.2263e-07)
(0.00125199 1.00463e-06 1.12964e-07)
(0.00124373 9.18805e-07 1.04382e-07)
(0.00123609 8.3964e-07 9.67167e-08)
(0.001229 7.6653e-07 8.98432e-08)
(0.0012224 6.98967e-07 8.36451e-08)
(0.00121624 6.36545e-07 7.80361e-08)
(0.00121048 5.78932e-07 7.29381e-08)
(0.00120508 5.2594e-07 6.82929e-08)
(0.00120001 4.77375e-07 6.40339e-08)
(0.00119524 4.33422e-07 6.01529e-08)
(0.00119075 3.93828e-07 5.65099e-08)
(0.0011865 3.60033e-07 5.33336e-08)
(0.00118254 3.30433e-07 4.99054e-08)
(0.00117869 3.11683e-07 4.80305e-08)
(0.00117533 2.93778e-07 4.27194e-08)
(0.00117152 3.0605e-07 4.7857e-08)
(0.0011695 2.96793e-07 2.07709e-08)
(0.0011645 3.87239e-07 9.09686e-08)
(0.00116498 3.48028e-07 -1.16674e-07)
(0.00559969 6.53514e-07 0.000295425)
(0.00346791 1.14437e-06 6.8825e-05)
(0.00234128 1.38021e-06 1.55283e-05)
(0.00198683 1.44108e-06 3.09449e-06)
(0.00180091 1.41188e-06 1.35718e-06)
(0.00168662 1.32867e-06 9.46339e-07)
(0.00160624 1.22004e-06 7.59038e-07)
(0.00154536 1.10349e-06 6.19403e-07)
(0.00149736 9.8924e-07 5.11257e-07)
(0.00145836 8.82709e-07 4.28754e-07)
(0.00142593 7.86217e-07 3.64934e-07)
(0.00139846 7.00267e-07 3.1472e-07)
(0.00137485 6.24391e-07 2.74512e-07)
(0.0013543 5.5766e-07 2.4178e-07)
(0.00133622 4.9895e-07 2.14747e-07)
(0.00132018 4.47175e-07 1.9213e-07)
(0.00130583 4.01314e-07 1.72986e-07)
(0.00129292 3.60487e-07 1.56614e-07)
(0.00128122 3.23939e-07 1.42494e-07)
(0.00127057 2.91033e-07 1.30208e-07)
(0.00126083 2.61265e-07 1.19446e-07)
(0.00125188 2.34194e-07 1.09948e-07)
(0.00124363 2.09487e-07 1.01524e-07)
(0.001236 1.86855e-07 9.40049e-08)
(0.00122891 1.66075e-07 8.72606e-08)
(0.00122232 1.46973e-07 8.11837e-08)
(0.00121616 1.29416e-07 7.56857e-08)
(0.0012104 1.13289e-07 7.06918e-08)
(0.00120501 9.85433e-08 6.61406e-08)
(0.00119994 8.51205e-08 6.19657e-08)
(0.00119517 7.30958e-08 5.81672e-08)
(0.00119069 6.24e-08 5.4598e-08)
(0.00118644 5.35297e-08 5.14998e-08)
(0.00118248 4.59969e-08 4.81285e-08)
(0.00117864 4.20035e-08 4.63337e-08)
(0.00117528 3.84289e-08 4.10608e-08)
(0.00117148 4.48908e-08 4.63124e-08)
(0.00116948 4.51648e-08 1.9227e-08)
(0.00116447 7.96146e-08 8.96964e-08)
(0.00116501 7.28249e-08 -1.18737e-07)
(0.00559969 -6.53515e-07 0.000295425)
(0.00346791 -1.14437e-06 6.8825e-05)
(0.00234128 -1.38022e-06 1.55283e-05)
(0.00198683 -1.44108e-06 3.09449e-06)
(0.00180091 -1.41187e-06 1.35718e-06)
(0.00168662 -1.32866e-06 9.46342e-07)
(0.00160624 -1.22004e-06 7.59038e-07)
(0.00154536 -1.10349e-06 6.19402e-07)
(0.00149736 -9.89244e-07 5.11259e-07)
(0.00145836 -8.82709e-07 4.28756e-07)
(0.00142593 -7.86211e-07 3.64934e-07)
(0.00139846 -7.00262e-07 3.14717e-07)
(0.00137485 -6.24388e-07 2.74511e-07)
(0.0013543 -5.57647e-07 2.41783e-07)
(0.00133622 -4.98944e-07 2.14748e-07)
(0.00132018 -4.47165e-07 1.92129e-07)
(0.00130583 -4.01309e-07 1.72985e-07)
(0.00129292 -3.60486e-07 1.56616e-07)
(0.00128122 -3.23934e-07 1.42493e-07)
(0.00127057 -2.91038e-07 1.30208e-07)
(0.00126083 -2.61265e-07 1.19444e-07)
(0.00125188 -2.34187e-07 1.09948e-07)
(0.00124363 -2.0948e-07 1.01522e-07)
(0.001236 -1.86841e-07 9.40028e-08)
(0.00122891 -1.66067e-07 8.72608e-08)
(0.00122232 -1.46968e-07 8.11837e-08)
(0.00121616 -1.29405e-07 7.56868e-08)
(0.0012104 -1.13276e-07 7.06919e-08)
(0.00120501 -9.85244e-08 6.61409e-08)
(0.00119994 -8.50929e-08 6.19667e-08)
(0.00119517 -7.30619e-08 5.81675e-08)
(0.00119069 -6.23624e-08 5.45983e-08)
(0.00118644 -5.34877e-08 5.14984e-08)
(0.00118248 -4.59441e-08 4.81327e-08)
(0.00117864 -4.19344e-08 4.63331e-08)
(0.00117528 -3.83454e-08 4.10623e-08)
(0.00117148 -4.47896e-08 4.6313e-08)
(0.00116948 -4.50577e-08 1.92261e-08)
(0.00116447 -7.94802e-08 8.96966e-08)
(0.00116501 -7.27386e-08 -1.18738e-07)
(0.00559971 -1.99019e-06 0.000295428)
(0.00346803 -3.50313e-06 6.88265e-05)
(0.00234151 -4.23884e-06 1.553e-05)
(0.00198714 -4.4639e-06 3.09678e-06)
(0.00180125 -4.41941e-06 1.36009e-06)
(0.00168697 -4.2144e-06 9.49986e-07)
(0.00160658 -3.93052e-06 7.6328e-07)
(0.00154568 -3.61758e-06 6.24064e-07)
(0.00149767 -3.30468e-06 5.16181e-07)
(0.00145864 -3.00747e-06 4.338e-07)
(0.00142618 -2.73311e-06 3.69985e-07)
(0.00139869 -2.48381e-06 3.19692e-07)
(0.00137506 -2.25912e-06 2.79346e-07)
(0.00135448 -2.05726e-06 2.4643e-07)
(0.00133639 -1.87589e-06 2.19188e-07)
(0.00132033 -1.71264e-06 1.96349e-07)
(0.00130598 -1.56525e-06 1.76982e-07)
(0.00129305 -1.43169e-06 1.60396e-07)
(0.00128135 -1.31023e-06 1.46063e-07)
(0.00127069 -1.19937e-06 1.33581e-07)
(0.00126094 -1.09786e-06 1.22633e-07)
(0.00125199 -1.00462e-06 1.12965e-07)
(0.00124373 -9.18796e-07 1.04382e-07)
(0.00123609 -8.39633e-07 9.6719e-08)
(0.001229 -7.66524e-07 8.98395e-08)
(0.0012224 -6.98959e-07 8.36435e-08)
(0.00121624 -6.36534e-07 7.80344e-08)
(0.00121048 -5.78922e-07 7.2935e-08)
(0.00120508 -5.25924e-07 6.82926e-08)
(0.00120001 -4.77353e-07 6.40355e-08)
(0.00119524 -4.33396e-07 6.01534e-08)
(0.00119075 -3.93798e-07 5.65082e-08)
(0.0011865 -3.59987e-07 5.33361e-08)
(0.00118254 -3.30381e-07 4.99066e-08)
(0.00117869 -3.11611e-07 4.80341e-08)
(0.00117533 -2.93694e-07 4.27178e-08)
(0.00117152 -3.05948e-07 4.78575e-08)
(0.0011695 -2.96694e-07 2.07669e-08)
(0.0011645 -3.87113e-07 9.09696e-08)
(0.00116498 -3.47945e-07 -1.16677e-07)
(0.00559976 -3.35122e-06 0.000295428)
(0.00346827 -5.87521e-06 6.88239e-05)
(0.00234197 -7.04127e-06 1.5526e-05)
(0.00198774 -7.35768e-06 3.09124e-06)
(0.00180193 -7.22126e-06 1.35302e-06)
(0.0016877 -6.82797e-06 9.41775e-07)
(0.00160731 -6.31504e-06 7.54215e-07)
(0.0015464 -5.76527e-06 6.14419e-07)
(0.00149835 -5.22579e-06 5.06243e-07)
(0.0014593 -4.72077e-06 4.23814e-07)
(0.00142681 -4.26035e-06 3.60143e-07)
(0.00139929 -3.84661e-06 3.10139e-07)
(0.00137562 -3.47743e-06 2.70174e-07)
(0.00135502 -3.14872e-06 2.37707e-07)
(0.00133691 -2.85579e-06 2.10943e-07)
(0.00132083 -2.594e-06 1.88585e-07)
(0.00130645 -2.35909e-06 1.69691e-07)
(0.0012935 -2.14737e-06 1.53556e-07)
(0.00128178 -1.95565e-06 1.39655e-07)
(0.00127111 -1.78128e-06 1.27569e-07)
(0.00126134 -1.62206e-06 1.16986e-07)
(0.00125237 -1.47615e-06 1.07655e-07)
(0.0012441 -1.34204e-06 9.93764e-08)
(0.00123645 -1.2185e-06 9.19912e-08)
(0.00122935 -1.10453e-06 8.53653e-08)
(0.00122274 -9.99277e-07 7.93993e-08)
(0.00121656 -9.02113e-07 7.39968e-08)
(0.00121079 -8.12506e-07 6.90881e-08)
(0.00120538 -7.30172e-07 6.46178e-08)
(0.0012003 -6.54813e-07 6.0518e-08)
(0.00119552 -5.8676e-07 5.67836e-08)
(0.00119102 -5.25582e-07 5.32805e-08)
(0.00118677 -4.73733e-07 5.02332e-08)
(0.00118279 -4.28323e-07 4.69322e-08)
(0.00117893 -4.01e-07 4.51549e-08)
(0.00117555 -3.7364e-07 4.00048e-08)
(0.00117174 -3.99039e-07 4.51803e-08)
(0.00116969 -3.82895e-07 1.84598e-08)
(0.00116469 -5.4952e-07 8.85181e-08)
(0.00116512 -4.76509e-07 -1.17243e-07)
(0.00559985 -4.82813e-06 0.00029543)
(0.00346868 -8.44927e-06 6.88258e-05)
(0.00234275 -1.00857e-05 1.55316e-05)
(0.00198873 -1.05288e-05 3.09972e-06)
(0.00180301 -1.03337e-05 1.36369e-06)
(0.00168879 -9.78562e-06 9.54399e-07)
(0.00160837 -9.0738e-06 7.68245e-07)
(0.0015474 -8.31158e-06 6.29281e-07)
(0.00149928 -7.56279e-06 5.21459e-07)
(0.00146014 -6.86001e-06 4.38998e-07)
(0.00142758 -6.21693e-06 3.75008e-07)
(0.0014 -5.63655e-06 3.24486e-07)
(0.00137627 -5.11625e-06 2.83874e-07)
(0.00135562 -4.65083e-06 2.50689e-07)
(0.00133746 -4.23418e-06 2.23174e-07)
(0.00132135 -3.86026e-06 2.00077e-07)
(0.00130694 -3.52349e-06 1.80465e-07)
(0.00129396 -3.21898e-06 1.63653e-07)
(0.00128222 -2.9425e-06 1.49117e-07)
(0.00127152 -2.69047e-06 1.36447e-07)
(0.00126174 -2.45991e-06 1.25327e-07)
(0.00125276 -2.24833e-06 1.15512e-07)
(0.00124448 -2.05363e-06 1.06789e-07)
(0.00123681 -1.8741e-06 9.90033e-08)
(0.0012297 -1.70831e-06 9.20153e-08)
(0.00122308 -1.55508e-06 8.57188e-08)
(0.0012169 -1.41348e-06 8.00197e-08)
(0.00121112 -1.28274e-06 7.4837e-08)
(0.0012057 -1.16243e-06 7.01155e-08)
(0.00120061 -1.05205e-06 6.57876e-08)
(0.00119582 -9.52034e-07 6.18411e-08)
(0.00119131 -8.61645e-07 5.81396e-08)
(0.00118705 -7.84355e-07 5.48976e-08)
(0.00118306 -7.155e-07 5.14401e-08)
(0.0011792 -6.7232e-07 4.94569e-08)
(0.0011758 -6.26036e-07 4.42123e-08)
(0.00117198 -6.57665e-07 4.90172e-08)
(0.00116987 -6.16554e-07 2.24075e-08)
(0.00116489 -8.5542e-07 9.14017e-08)
(0.00116514 -7.03099e-07 -1.11774e-07)
(0.00559996 -6.37933e-06 0.000295427)
(0.00346924 -1.10402e-05 6.88153e-05)
(0.00234381 -1.2993e-05 1.55186e-05)
(0.00199008 -1.33998e-05 3.08331e-06)
(0.00180451 -1.30075e-05 1.34402e-06)
(0.00169035 -1.2205e-05 9.32568e-07)
(0.00160993 -1.12315e-05 7.45152e-07)
(0.00154892 -1.02247e-05 6.05695e-07)
(0.00150074 -9.2575e-06 4.98004e-07)
(0.00146154 -8.36396e-06 4.16136e-07)
(0.00142891 -7.5557e-06 3.53053e-07)
(0.00140126 -6.83242e-06 3.03627e-07)
(0.00137747 -6.18801e-06 2.64209e-07)
(0.00135677 -5.61407e-06 2.32241e-07)
(0.00133855 -5.10177e-06 2.05923e-07)
(0.00132239 -4.64282e-06 1.83966e-07)
(0.00130793 -4.22985e-06 1.65421e-07)
(0.00129492 -3.85651e-06 1.49597e-07)
(0.00128313 -3.51746e-06 1.35963e-07)
(0.0012724 -3.20823e-06 1.24114e-07)
(0.00126259 -2.92515e-06 1.13741e-07)
(0.00125357 -2.66515e-06 1.04594e-07)
(0.00124526 -2.42571e-06 9.64759e-08)
(0.00123757 -2.20476e-06 8.92352e-08)
(0.00123043 -2.00058e-06 8.27416e-08)
(0.00122378 -1.81179e-06 7.6889e-08)
(0.00121758 -1.63726e-06 7.15931e-08)