/*--------------------------------*- C++ -*----------------------------------*\
| =========                 |                                                 |
| \\      /  F ield         | OpenFOAM: The Open Source CFD Toolbox           |
|  \\    /   O peration     | Version:  5.0                                   |
|   \\  /    A nd           | Web:      www.OpenFOAM.org                      |
|    \\/     M anipulation  |                                                 |
\*---------------------------------------------------------------------------*/
FoamFile
{
    version     2.0;
    format      ascii;
    class       volScalarField;
    location    "600/porous";
    object      T;
}
// * * * * * * * * * * * * * * * * * * * * * * * * * * * * * * * * * * * * * //

dimensions      [0 0 0 1 0 0 0];

internalField   nonuniform List<scalar> 
36000
(
400
400
400
400
399.999
399.574
399.193
398.842
398.51
398.191
397.881
397.577
397.277
396.981
396.689
396.4
396.113
395.83
395.55
395.274
395.001
394.73
394.458
394.184
393.907
393.631
393.356
393.083
392.812
392.545
392.281
392.021
391.764
391.512
391.272
391.803
392.16
392.432
392.653
392.839
400
400
400
400
399.999
399.624
399.289
398.982
398.695
398.421
398.157
397.901
397.651
397.405
397.165
396.928
396.694
396.465
396.239
396.017
395.799
395.583
395.367
395.148
394.927
394.707
394.489
394.273
394.059
393.848
393.641
393.436
393.235
393.039
392.848
393.196
393.441
393.628
393.778
393.909
400
400
400
400
399.999
399.631
399.303
399.006
398.73
398.468
398.218
397.977
397.743
397.516
397.294
397.077
396.864
396.656
396.453
396.254
396.059
395.867
395.675
395.48
395.285
395.091
394.898
394.708
394.521
394.337
394.156
393.979
393.805
393.636
393.474
393.795
394.023
394.2
394.341
394.462
400
400
400
400
399.999
399.63
399.302
399.006
398.731
398.472
398.225
397.987
397.758
397.535
397.318
397.107
396.901
396.7
396.503
396.311
396.123
395.938
395.753
395.566
395.379
395.193
395.009
394.828
394.649
394.474
394.303
394.135
393.971
393.812
393.66
393.975
394.201
394.376
394.518
394.639
400
400
400
400
399.999
399.629
399.302
399.006
398.731
398.472
398.226
397.99
397.761
397.541
397.327
397.118
396.913
396.714
396.519
396.328
396.141
395.957
395.774
395.59
395.406
395.223
395.041
394.862
394.687
394.514
394.346
394.181
394.021
393.865
393.716
394.029
394.256
394.43
394.573
394.693
400
400
400
400
399.999
399.628
399.3
399.004
398.729
398.47
398.224
397.988
397.761
397.541
397.328
397.12
396.917
396.717
396.521
396.329
396.141
395.957
395.774
395.591
395.408
395.226
395.045
394.867
394.692
394.52
394.353
394.189
394.029
393.875
393.727
394.04
394.266
394.441
394.583
394.703
400
400
400
400
399.999
399.628
399.3
399.004
398.729
398.471
398.225
397.989
397.763
397.546
397.334
397.127
396.923
396.723
396.526
396.331
396.141
395.956
395.773
395.591
395.408
395.227
395.047
394.87
394.695
394.524
394.356
394.192
394.033
393.879
393.731
394.044
394.27
394.444
394.587
394.707
400
400
400
400
399.999
399.628
399.3
399.004
398.729
398.471
398.225
397.99
397.765
397.549
397.339
397.132
396.928
396.726
396.526
396.329
396.137
395.949
395.766
395.584
395.403
395.223
395.044
394.867
394.693
394.521
394.353
394.19
394.03
393.876
393.728
394.041
394.267
394.441
394.584
394.704
400
400
400
400
399.999
399.628
399.301
399.005
398.731
398.473
398.227
397.993
397.77
397.555
397.346
397.139
396.934
396.73
396.527
396.328
396.133
395.944
395.76
395.579
395.399
395.22
395.042
394.866
394.692
394.521
394.353
394.189
394.03
393.875
393.727
394.04
394.266
394.44
394.583
394.703
400
400
400
400
399.999
399.628
399.302
399.006
398.732
398.474
398.229
397.996
397.773
397.56
397.351
397.144
396.937
396.73
396.524
396.323
396.127
395.935
395.75
395.569
395.391
395.214
395.037
394.862
394.688
394.517
394.349
394.186
394.026
393.871
393.723
394.036
394.262
394.436
394.578
394.699
400
400
400
400
399.999
399.63
399.304
399.009
398.735
398.477
398.233
397.999
397.778
397.565
397.356
397.148
396.938
396.729
396.522
396.32
396.122
395.928
395.741
395.561
395.384
395.209
395.034
394.859
394.686
394.515
394.348
394.184
394.024
393.869
393.72
394.033
394.259
394.434
394.576
394.696
400
400
400
400
399.999
399.631
399.305
399.011
398.737
398.479
398.235
398.002
397.78
397.567
397.358
397.148
396.937
396.726
396.518
396.315
396.118
395.923
395.733
395.552
395.377
395.203
395.03
394.856
394.684
394.513
394.346
394.182
394.023
393.867
393.717
394.03
394.256
394.431
394.573
394.694
400
400
400
400
399.999
399.632
399.308
399.013
398.74
398.482
398.237
398.004
397.782
397.568
397.359
397.148
396.935
396.723
396.516
396.314
396.116
395.922
395.731
395.549
395.374
395.202
395.03
394.858
394.686
394.516
394.348
394.184
394.024
393.868
393.718
394.031
394.257
394.432
394.574
394.694
400
400
400
400
399.999
399.633
399.309
399.015
398.742
398.483
398.238
398.004
397.781
397.567
397.357
397.145
396.932
396.721
396.514
396.313
396.115
395.921
395.73
395.547
395.372
395.201
395.031
394.86
394.688
394.518
394.351
394.187
394.026
393.87
393.718
394.031
394.257
394.432
394.574
394.695
400
400
400
400
399.999
399.634
399.31
399.016
398.743
398.484
398.239
398.004
397.78
397.565
397.354
397.142
396.929
396.718
396.512
396.311
396.114
395.919
395.729
395.546
395.371
395.201
395.033
394.863
394.692
394.522
394.354
394.19
394.029
393.872
393.719
394.033
394.259
394.434
394.576
394.696
400
400
400
400
399.999
399.636
399.313
399.019
398.745
398.486
398.239
398.004
397.778
397.562
397.35
397.139
396.926
396.715
396.509
396.308
396.111
395.917
395.727
395.544
395.369
395.201
395.034
394.865
394.695
394.525
394.357
394.193
394.032
393.872
393.717
394.031
394.258
394.433
394.575
394.696
400
400
400
400
399.999
399.636
399.314
399.02
398.745
398.486
398.239
398.002
397.776
397.558
397.346
397.135
396.923
396.712
396.506
396.305
396.108
395.914
395.724
395.542
395.368
395.2
395.035
394.866
394.696
394.527
394.359
394.194
394.032
393.872
393.716
394.03
394.257
394.432
394.575
394.695
400
400
400
400
399.999
399.637
399.315
399.021
398.746
398.486
398.238
398.001
397.774
397.555
397.342
397.132
396.921
396.71
396.504
396.303
396.106
395.912
395.722
395.541
395.368
395.201
395.036
394.869
394.699
394.529
394.361
394.196
394.033
393.872
393.714
394.029
394.256
394.431
394.574
394.695
400
400
400
400
399.999
399.638
399.316
399.022
398.747
398.486
398.238
398
397.771
397.551
397.338
397.128
396.919
396.71
396.503
396.302
396.105
395.911
395.722
395.542
395.37
395.204
395.039
394.871
394.701
394.531
394.363
394.197
394.034
393.871
393.712
394.027
394.255
394.43
394.573
394.694
400
400
400
400
399.999
399.639
399.317
399.022
398.747
398.487
398.238
398
397.77
397.549
397.335
397.126
396.919
396.712
396.507
396.306
396.109
395.916
395.729
395.55
395.378
395.212
395.046
394.877
394.706
394.536
394.367
394.201
394.037
393.874
393.714
394.029
394.257
394.433
394.575
394.696
400
400
400
400
399.999
399.639
399.318
399.023
398.748
398.487
398.238
397.999
397.769
397.547
397.331
397.123
396.918
396.714
396.511
396.311
396.115
395.923
395.738
395.56
395.388
395.219
395.052
394.882
394.71
394.539
394.37
394.203
394.038
393.874
393.713
394.029
394.257
394.433
394.576
394.697
400
400
400
400
399.999
399.64
399.319
399.024
398.749
398.488
398.239
397.999
397.768
397.546
397.33
397.121
396.917
396.716
396.516
396.318
396.124
395.934
395.75
395.572
395.398
395.228
395.058
394.887
394.715
394.543
394.374
394.206
394.041
393.876
393.715
394.031
394.26
394.436
394.579
394.7
400
400
400
400
399.999
399.64
399.319
399.025
398.75
398.489
398.239
397.999
397.768
397.544
397.328
397.118
396.915
396.716
396.519
396.324
396.131
395.943
395.759
395.58
395.405
395.232
395.06
394.887
394.715
394.543
394.373
394.206
394.04
393.875
393.713
394.03
394.259
394.435
394.579
394.7
400
400
400
400
399.999
399.641
399.32
399.026
398.751
398.49
398.241
398
397.769
397.545
397.328
397.119
396.916
396.719
396.524
396.331
396.14
395.953
395.77
395.589
395.412
395.237
395.063
394.889
394.716
394.544
394.374
394.207
394.041
393.875
393.713
394.031
394.26
394.436
394.58
394.701
400
400
400
400
399.999
399.641
399.321
399.027
398.752
398.491
398.241
398.001
397.768
397.544
397.327
397.117
396.914
396.718
396.525
396.334
396.145
395.958
395.774
395.592
395.413
395.235
395.06
394.885
394.711
394.539
394.369
394.201
394.035
393.87
393.708
394.026
394.255
394.432
394.575
394.696
400
400
400
400
399.999
399.642
399.322
399.028
398.754
398.493
398.244
398.003
397.771
397.546
397.329
397.118
396.916
396.72
396.528
396.338
396.149
395.962
395.776
395.593
395.411
395.232
395.055
394.878
394.704
394.532
394.361
394.193
394.026
393.86
393.697
394.015
394.244
394.421
394.564
394.686
400
400
400
400
399.999
399.642
399.322
399.028
398.753
398.492
398.242
398.001
397.768
397.542
397.323
397.111
396.907
396.71
396.517
396.326
396.135
395.945
395.756
395.57
395.385
395.202
395.021
394.842
394.665
394.49
394.317
394.146
393.976
393.807
393.641
393.961
394.19
394.367
394.51
394.632
400
400
400
400
399.999
399.642
399.322
399.027
398.75
398.487
398.235
397.99
397.753
397.523
397.299
397.082
396.872
396.669
396.47
396.272
396.074
395.876
395.679
395.484
395.291
395.099
394.91
394.722
394.536
394.352
394.17
393.99
393.81
393.632
393.457
393.782
394.014
394.192
394.334
394.456
400
400
400
400
399.999
399.634
399.305
399.001
398.713
398.438
398.172
397.913
397.66
397.412
397.17
396.933
396.703
396.479
396.258
396.036
395.815
395.593
395.372
395.152
394.933
394.716
394.501
394.287
394.075
393.865
393.656
393.449
393.242
393.036
392.834
393.187
393.434
393.623
393.773
393.906
400
400
400
400
399.999
399.585
399.209
398.86
398.528
398.207
397.894
397.586
397.284
396.986
396.692
396.404
396.122
395.845
395.57
395.294
395.018
394.74
394.463
394.187
393.913
393.64
393.369
393.099
392.831
392.565
392.3
392.037
391.775
391.513
391.258
391.794
392.154
392.427
392.649
392.837
400
400
400
400
399.999
399.774
399.52
399.25
398.972
398.69
398.406
398.122
397.838
397.555
397.273
396.992
396.712
396.434
396.158
395.884
395.613
395.344
395.074
394.803
394.531
394.257
393.984
393.713
393.443
393.175
392.91
392.648
392.39
392.134
391.887
392.135
392.372
392.584
392.771
392.934
400
400
400
400
400
399.806
399.591
399.365
399.133
398.899
398.664
398.431
398.199
397.968
397.74
397.513
397.289
397.067
396.847
396.63
396.416
396.203
395.991
395.779
395.565
395.351
395.138
394.926
394.715
394.507
394.301
394.097
393.897
393.699
393.506
393.619
393.741
393.858
393.965
394.066
400
400
400
400
400
399.81
399.602
399.384
399.162
398.94
398.719
398.5
398.284
398.07
397.86
397.653
397.449
397.248
397.05
396.856
396.665
396.476
396.289
396.1
395.912
395.723
395.536
395.35
395.166
394.985
394.806
394.629
394.456
394.286
394.121
394.222
394.331
394.437
394.534
394.626
400
400
400
400
400
399.809
399.601
399.383
399.163
398.943
398.724
398.508
398.296
398.087
397.882
397.68
397.482
397.287
397.096
396.909
396.724
396.543
396.363
396.182
396.001
395.821
395.642
395.465
395.29
395.117
394.947
394.781
394.617
394.457
394.301
394.401
394.508
394.613
394.711
394.802
400
400
400
400
400
399.809
399.601
399.383
399.163
398.943
398.725
398.51
398.299
398.092
397.888
397.689
397.493
397.3
397.11
396.924
396.742
396.562
396.383
396.205
396.027
395.849
395.673
395.498
395.326
395.156
394.989
394.825
394.665
394.508
394.355
394.455
394.563
394.667
394.765
394.856
400
400
400
400
400
399.809
399.599
399.381
399.161
398.94
398.722
398.507
398.297
398.09
397.888
397.689
397.493
397.301
397.112
396.925
396.742
396.561
396.383
396.205
396.027
395.851
395.676
395.502
395.33
395.161
394.995
394.832
394.672
394.516
394.365
394.465
394.572
394.677
394.775
394.866
400
400
400
400
400
399.808
399.599
399.381
399.161
398.94
398.722
398.508
398.298
398.093
397.891
397.693
397.498
397.306
397.116
396.928
396.743
396.562
396.383
396.205
396.028
395.852
395.677
395.504
395.333
395.164
394.998
394.835
394.675
394.52
394.369
394.469
394.576
394.681
394.779
394.87
400
400
400
400
400
399.808
399.599
399.381
399.16
398.94
398.722
398.508
398.298
398.094
397.894
397.696
397.501
397.308
397.116
396.927
396.74
396.557
396.377
396.199
396.023
395.847
395.673
395.5
395.329
395.16
394.994
394.832
394.672
394.516
394.365
394.465
394.573
394.677
394.776
394.866
400
400
400
400
400
399.808
399.599
399.382
399.161
398.941
398.723
398.51
398.301
398.098
397.898
397.702
397.506
397.312
397.118
396.927
396.739
396.554
396.373
396.195
396.019
395.844
395.671
395.498
395.328
395.159
394.994
394.831
394.671
394.515
394.364
394.464
394.572
394.676
394.774
394.865
400
400
400
400
400
399.809
399.599
399.382
399.162
398.942
398.724
398.511
398.303
398.101
397.902
397.705
397.508
397.312
397.117
396.924
396.734
396.548
396.366
396.187
396.012
395.838
395.665
395.493
395.323
395.155
394.989
394.826
394.667
394.511
394.36
394.46
394.567
394.672
394.77
394.861
400
400
400
400
400
399.809
399.601
399.384
399.164
398.944
398.727
398.514
398.306
398.104
397.906
397.708
397.511
397.313
397.116
396.923
396.732
396.544
396.36
396.181
396.006
395.833
395.661
395.49
395.32
395.152
394.987
394.824
394.665
394.509
394.357
394.457
394.565
394.67
394.768
394.859
400
400
400
400
400
399.81
399.601
399.385
399.165
398.945
398.728
398.515
398.308
398.106
397.907
397.709
397.51
397.311
397.114
396.919
396.728
396.539
396.354
396.174
395.999
395.827
395.656
395.486
395.317
395.149
394.984
394.822
394.662
394.506
394.354
394.454
394.562
394.667
394.765
394.856
400
400
400
400
400
399.81
399.603
399.386
399.167
398.947
398.73
398.517
398.31
398.107
397.908
397.709
397.509
397.31
397.113
396.918
396.727
396.538
396.353
396.172
395.997
395.826
395.656
395.486
395.318
395.151
394.986
394.823
394.664
394.508
394.355
394.455
394.562
394.667
394.765
394.857
400
400
400
400
400
399.811
399.604
399.388
399.168
398.948
398.731
398.518
398.31
398.107
397.907
397.707
397.507
397.308
397.111
396.917
396.726
396.537
396.351
396.171
395.995
395.824
395.655
395.487
395.319
395.152
394.988
394.825
394.666
394.509
394.355
394.455
394.563
394.668
394.766
394.857
400
400
400
400
400
399.811
399.604
399.388
399.169
398.949
398.731
398.518
398.309
398.106
397.905
397.705
397.505
397.306
397.109
396.915
396.724
396.536
396.35
396.169
395.994
395.824
395.656
395.488
395.321
395.155
394.99
394.828
394.668
394.511
394.357
394.457
394.564
394.669
394.767
394.859
400
400
400
400
400
399.812
399.606
399.39
399.17
398.95
398.732
398.518
398.309
398.104
397.903
397.703
397.503
397.303
397.106
396.913
396.722
396.534
396.348
396.168
395.993
395.823
395.656
395.489
395.323
395.157
394.992
394.83
394.67
394.512
394.356
394.456
394.564
394.669
394.767
394.858
400
400
400
400
400
399.813
399.607
399.391
399.171
398.95
398.732
398.517
398.307
398.102
397.9
397.7
397.5
397.3
397.104
396.91
396.719
396.531
396.345
396.165
395.991
395.822
395.656
395.49
395.323
395.158
394.993
394.831
394.67
394.512
394.356
394.456
394.563
394.668
394.766
394.857
400
400
400
400
400
399.813
399.607
399.391
399.171
398.951
398.732
398.517
398.306
398.1
397.897
397.698
397.498
397.299
397.102
396.908
396.717
396.529
396.344
396.164
395.99
395.822
395.656
395.491
395.325
395.159
394.995
394.832
394.672
394.513
394.355
394.455
394.563
394.668
394.766
394.857
400
400
400
400
400
399.813
399.608
399.392
399.172
398.951
398.732
398.517
398.305
398.098
397.895
397.695
397.496
397.298
397.101
396.907
396.717
396.528
396.343
396.164
395.991
395.824
395.658
395.493
395.327
395.161
394.996
394.834
394.673
394.513
394.354
394.454
394.562
394.667
394.765
394.856
400
400
400
400
400
399.814
399.608
399.393
399.173
398.952
398.733
398.517
398.304
398.097
397.893
397.693
397.496
397.299
397.103
396.91
396.72
396.532
396.348
396.171
395.998
395.83
395.665
395.499
395.333
395.166
395.001
394.838
394.676
394.516
394.357
394.457
394.565
394.669
394.768
394.859
400
400
400
400
400
399.814
399.609
399.393
399.173
398.953
398.733
398.517
398.304
398.095
397.891
397.691
397.494
397.299
397.105
396.913
396.724
396.537
396.355
396.178
396.006
395.837
395.671
395.504
395.337
395.171
395.005
394.841
394.679
394.518
394.358
394.458
394.565
394.67
394.769
394.86
400
400
400
400
400
399.814
399.609
399.394
399.174
398.954
398.734
398.518
398.304
398.096
397.891
397.691
397.495
397.301
397.109
396.918
396.73
396.546
396.365
396.188
396.016
395.846
395.678
395.511
395.343
395.176
395.01
394.846
394.683
394.521
394.361
394.461
394.568
394.673
394.772
394.863
400
400
400
400
400
399.815
399.61
399.395
399.175
398.954
398.735
398.518
398.304
398.095
397.89
397.689
397.493
397.301
397.11
396.921
396.735
396.551
396.372
396.195
396.022
395.851
395.682
395.513
395.344
395.177
395.011
394.846
394.683
394.521
394.361
394.46
394.568
394.673
394.772
394.863
400
400
400
400
400
399.815
399.611
399.396
399.177
398.956
398.737
398.52
398.306
398.097
397.892
397.691
397.495
397.303
397.114
396.927
396.742
396.56
396.381
396.204
396.029
395.857
395.687
395.517
395.348
395.18
395.013
394.848
394.685
394.523
394.362
394.462
394.57
394.675
394.773
394.865
400
400
400
400
400
399.815
399.611
399.396
399.177
398.957
398.737
398.52
398.306
398.097
397.891
397.69
397.494
397.303
397.115
396.929
396.745
396.563
396.384
396.206
396.031
395.857
395.685
395.514
395.345
395.176
395.009
394.844
394.681
394.518
394.357
394.457
394.565
394.67
394.769
394.86
400
400
400
400
400
399.816
399.612
399.398
399.179
398.959
398.74
398.523
398.31
398.1
397.894
397.692
397.496
397.305
397.118
396.933
396.749
396.567
396.387
396.208
396.032
395.856
395.683
395.51
395.34
395.17
395.003
394.837
394.673
394.509
394.348
394.447
394.555
394.66
394.759
394.85
400
400
400
400
400
399.816
399.612
399.398
399.179
398.958
398.739
398.521
398.307
398.096
397.888
397.686
397.488
397.296
397.107
396.921
396.735
396.551
396.368
396.187
396.007
395.829
395.652
395.477
395.303
395.131
394.961
394.792
394.624
394.458
394.293
394.393
394.501
394.606
394.705
394.796
400
400
400
400
400
399.816
399.612
399.397
399.177
398.955
398.733
398.512
398.294
398.079
397.867
397.659
397.456
397.258
397.063
396.87
396.678
396.486
396.296
396.106
395.918
395.731
395.545
395.361
395.179
394.998
394.819
394.641
394.464
394.288
394.114
394.215
394.324
394.431
394.529
394.621
400
400
400
400
400
399.811
399.601
399.377
399.146
398.912
398.677
398.442
398.208
397.976
397.746
397.519
397.296
397.077
396.861
396.645
396.43
396.214
395.999
395.785
395.571
395.359
395.147
394.937
394.728
394.521
394.315
394.11
393.906
393.702
393.501
393.615
393.736
393.855
393.962
394.063
400
400
400
400
399.999
399.779
399.53
399.262
398.985
398.703
398.418
398.132
397.846
397.561
397.278
396.997
396.72
396.446
396.174
395.902
395.629
395.355
395.082
394.809
394.537
394.265
393.995
393.726
393.459
393.193
392.928
392.664
392.402
392.139
391.882
392.13
392.368
392.58
392.768
392.932
400
400
400
400
400
399.858
399.697
399.517
399.322
399.113
398.894
398.667
398.432
398.192
397.947
397.698
397.447
397.195
396.941
396.686
396.432
396.177
395.921
395.663
395.403
395.142
394.88
394.618
394.357
394.097
393.838
393.58
393.325
393.072
392.824
392.897
392.99
393.093
393.199
393.298
400
400
400
400
400
399.878
399.742
399.594
399.436
399.269
399.095
398.915
398.73
398.543
398.352
398.159
397.965
397.771
397.575
397.38
397.186
396.991
396.796
396.6
396.403
396.205
396.006
395.808
395.611
395.414
395.218
395.024
394.831
394.641
394.453
394.452
394.466
394.491
394.522
394.557
400
400
400
400
400
399.881
399.749
399.607
399.457
399.299
399.136
398.969
398.799
398.627
398.453
398.278
398.104
397.929
397.755
397.582
397.41
397.238
397.067
396.895
396.723
396.55
396.377
396.205
396.034
395.864
395.696
395.529
395.364
395.201
395.041
395.042
395.054
395.075
395.101
395.132
400
400
400
400
400
399.88
399.749
399.607
399.457
399.301
399.14
398.976
398.809
398.64
398.471
398.301
398.132
397.963
397.795
397.628
397.463
397.298
397.134
396.97
396.805
396.64
396.476
396.312
396.15
395.989
395.829
395.671
395.516
395.362
395.212
395.215
395.229
395.251
395.278
395.31
400
400
400
400
400
399.88
399.749
399.607
399.458
399.302
399.141
398.977
398.811
398.644
398.476
398.308
398.141
397.973
397.807
397.642
397.478
397.315
397.153
396.991
396.829
396.666
396.505
396.344
396.184
396.026
395.869
395.714
395.562
395.412
395.264
395.269
395.284
395.306
395.334
395.366
400
400
400
400
400
399.88
399.748
399.606
399.456
399.3
399.139
398.975
398.809
398.642
398.475
398.307
398.14
397.973
397.807
397.642
397.478
397.315
397.153
396.991
396.829
396.667
396.506
396.346
396.187
396.03
395.874
395.72
395.568
395.419
395.272
395.278
395.293
395.316
395.344
395.376
400
400
400
400
400
399.88
399.748
399.606
399.456
399.3
399.139
398.975
398.81
398.644
398.477
398.31
398.143
397.977
397.81
397.644
397.479
397.316
397.153
396.991
396.83
396.668
396.508
396.348
396.189
396.032
395.876
395.722
395.571
395.422
395.276
395.281
395.296
395.319
395.347
395.38
400
400
400
400
400
399.88
399.748
399.606
399.455
399.299
399.138
398.974
398.809
398.643
398.477
398.311
398.144
397.977
397.81
397.643
397.476
397.312
397.149
396.987
396.825
396.664
396.503
396.344
396.185
396.028
395.872
395.718
395.567
395.418
395.272
395.277
395.292
395.315
395.344
395.377
400
400
400
400
400
399.88
399.748
399.606
399.456
399.3
399.139
398.976
398.811
398.646
398.481
398.315
398.148
397.98
397.812
397.644
397.477
397.311
397.147
396.985
396.823
396.662
396.502
396.342
396.184
396.027
395.871
395.717
395.566
395.417
395.271
395.276
395.291
395.314
395.342
395.375
400
400
400
400
400
399.88
399.748
399.606
399.456
399.3
399.14
398.976
398.812
398.648
398.482
398.316
398.149
397.98
397.811
397.642
397.473
397.306
397.142
396.979
396.817
396.656
396.496
396.337
396.179
396.022
395.866
395.713
395.561
395.412
395.266
395.271
395.287
395.31
395.338
395.371
400
400
400
400
400
399.881
399.749
399.607
399.458
399.302
399.141
398.978
398.814
398.65
398.485
398.319
398.151
397.981
397.811
397.641
397.472
397.304
397.138
396.975
396.813
396.653
396.493
396.334
396.176
396.019
395.864
395.71
395.559
395.41
395.263
395.269
395.284
395.307
395.336
395.369
400
400
400
400
400
399.881
399.749
399.608
399.458
399.302
399.142
398.979
398.815
398.651
398.486
398.319
398.15
397.98
397.809
397.639
397.47
397.301
397.134
396.97
396.808
396.648
396.489
396.33
396.173
396.016
395.861
395.707
395.556
395.407
395.26
395.266
395.281
395.304
395.333
395.366
400
400
400
400
400
399.881
399.75
399.609
399.46
399.304
399.144
398.981
398.817
398.652
398.487
398.32
398.151
397.98
397.809
397.639
397.469
397.3
397.133
396.968
396.807
396.647
396.488
396.33
396.173
396.017
395.862
395.708
395.557
395.408
395.261
395.266
395.282
395.305
395.333
395.366
400
400
400
400
400
399.882
399.751
399.61
399.46
399.305
399.144
398.981
398.817
398.652
398.487
398.319
398.149
397.978
397.807
397.637
397.468
397.299
397.132
396.967
396.805
396.646
396.488
396.33
396.173
396.017
395.862
395.709
395.558
395.408
395.261
395.266
395.282
395.305
395.333
395.367
400
400
400
400
400
399.882
399.751
399.61
399.461
399.305
399.145
398.981
398.817
398.652
398.486
398.318
398.148
397.977
397.806
397.636
397.467
397.298
397.131
396.966
396.804
396.645
396.488
396.331
396.174
396.019
395.864
395.711
395.559
395.41
395.262
395.268
395.283
395.306
395.335
395.368
400
400
400
400
400
399.882
399.752
399.612
399.462
399.306
399.145
398.982
398.816
398.651
398.484
398.316
398.146
397.975
397.804
397.634
397.465
397.296
397.129
396.964
396.803
396.644
396.487
396.331
396.175
396.02
395.865
395.712
395.561
395.411
395.262
395.268
395.283
395.306
395.334
395.368
400
400
400
400
400
399.883
399.753
399.612
399.462
399.306
399.145
398.981
398.816
398.649
398.482
398.314
398.144
397.973
397.802
397.632
397.463
397.294
397.127
396.962
396.801
396.642
396.486
396.33
396.175
396.019
395.865
395.712
395.561
395.41
395.262
395.267
395.282
395.305
395.334
395.367
400
400
400
400
400
399.883
399.753
399.612
399.463
399.307
399.146
398.981
398.815
398.648
398.481
398.313
398.143
397.972
397.801
397.631
397.461
397.293
397.125
396.961
396.8
396.642
396.487
396.331
396.176
396.021
395.866
395.713
395.562
395.411
395.262
395.267
395.282
395.305
395.334
395.367
400
400
400
400
400
399.883
399.753
399.613
399.463
399.307
399.146
398.981
398.815
398.647
398.479
398.311
398.142
397.971
397.8
397.63
397.461
397.292
397.125
396.961
396.801
396.643
396.488
396.332
396.177
396.022
395.868
395.715
395.563
395.412
395.261
395.267
395.282
395.305
395.333
395.366
400
400
400
400
400
399.883
399.754
399.613
399.464
399.308
399.146
398.981
398.815
398.647
398.479
398.31
398.142
397.972
397.802
397.632
397.463
397.295
397.129
396.966
396.806
396.649
396.493
396.338
396.182
396.027
395.872
395.719
395.567
395.415
395.265
395.27
395.285
395.308
395.337
395.37
400
400
400
400
400
399.883
399.754
399.614
399.464
399.308
399.146
398.981
398.814
398.646
398.478
398.309
398.141
397.972
397.803
397.634
397.465
397.298
397.133
396.971
396.811
396.654
396.498
396.342
396.186
396.031
395.876
395.723
395.57
395.418
395.267
395.272
395.287
395.31
395.338
395.371
400
400
400
400
400
399.884
399.754
399.614
399.465
399.309
399.147
398.982
398.815
398.647
398.478
398.31
398.142
397.974
397.806
397.638
397.471
397.305
397.141
396.979
396.819
396.662
396.505
396.349
396.192
396.037
395.882
395.728
395.575
395.423
395.271
395.276
395.291
395.314
395.342
395.375
400
400
400
400
400
399.884
399.755
399.614
399.465
399.309
399.148
398.983
398.815
398.647
398.478
398.309
398.141
397.974
397.807
397.64
397.473
397.308
397.145
396.984
396.824
396.666
396.508
396.351
396.195
396.038
395.883
395.729
395.576
395.423
395.272
395.276
395.291
395.314
395.342
395.375
400
400
400
400
400
399.884
399.755
399.615
399.466
399.311
399.149
398.985
398.817
398.649
398.48
398.311
398.143
397.977
397.81
397.645
397.479
397.315
397.153
396.991
396.831
396.672
396.514
396.356
396.199
396.043
395.887
395.733
395.579
395.427
395.275
395.28
395.294
395.317
395.345
395.378
400
400
400
400
400
399.884
399.755
399.615
399.467
399.311
399.15
398.985
398.817
398.649
398.479
398.31
398.143
397.976
397.811
397.646
397.481
397.318
397.155
396.993
396.832
396.673
396.514
396.355
396.198
396.041
395.885
395.73
395.576
395.423
395.271
395.276
395.29
395.313
395.341
395.374
400
400
400
400
400
399.884
399.756
399.617
399.468
399.313
399.152
398.988
398.82
398.652
398.482
398.313
398.145
397.979
397.814
397.649
397.485
397.321
397.158
396.995
396.834
396.673
396.513
396.353
396.194
396.037
395.88
395.724
395.57
395.416
395.263
395.267
395.281
395.304
395.331
395.363
400
400
400
400
400
399.884
399.756
399.616
399.468
399.312
399.151
398.986
398.818
398.648
398.478
398.307
398.138
397.97
397.804
397.638
397.472
397.306
397.14
396.975
396.811
396.647
396.484
396.322
396.16
396
395.84
395.681
395.523
395.366
395.21
395.213
395.227
395.249
395.276
395.307
400
400
400
400
400
399.884
399.756
399.616
399.466
399.309
399.146
398.979
398.808
398.634
398.46
398.285
398.111
397.938
397.765
397.593
397.42
397.247
397.075
396.902
396.729
396.557
396.386
396.215
396.045
395.875
395.707
395.539
395.372
395.206
395.04
395.041
395.052
395.073
395.099
395.129
400
400
400
400
400
399.881
399.748
399.602
399.445
399.278
399.104
398.924
398.738
398.55
398.358
398.166
397.972
397.779
397.586
397.392
397.197
397.001
396.804
396.607
396.41
396.212
396.015
395.818
395.621
395.425
395.23
395.035
394.841
394.646
394.453
394.452
394.466
394.49
394.521
394.556
400
400
400
400
400
399.862
399.703
399.525
399.331
399.123
398.903
398.675
398.439
398.198
397.952
397.704
397.454
397.204
396.952
396.699
396.444
396.187
395.929
395.67
395.41
395.15
394.89
394.63
394.37
394.111
393.853
393.595
393.337
393.08
392.824
392.896
392.989
393.092
393.198
393.297
400
400
400
400
400
399.892
399.772
399.642
399.501
399.349
399.187
399.016
398.836
398.649
398.454
398.252
398.045
397.833
397.617
397.397
397.175
396.95
396.721
396.49
396.254
396.017
395.777
395.535
395.293
395.05
394.807
394.564
394.321
394.08
393.841
393.837
393.846
393.867
393.896
393.923
400
400
400
400
400
399.906
399.805
399.697
399.583
399.462
399.335
399.202
399.064
398.921
398.774
398.624
398.469
398.312
398.153
397.991
397.828
397.664
397.497
397.328
397.157
396.984
396.81
396.635
396.459
396.283
396.107
395.931
395.756
395.581
395.408
395.37
395.338
395.314
395.295
395.279
400
400
400
400
400
399.908
399.81
399.706
399.597
399.483
399.364
399.242
399.115
398.985
398.852
398.717
398.579
398.44
398.299
398.158
398.015
397.872
397.728
397.582
397.434
397.285
397.136
396.986
396.836
396.687
396.537
396.388
396.24
396.093
395.948
395.919
395.894
395.874
395.858
395.846
400
400
400
400
400
399.907
399.809
399.706
399.598
399.485
399.368
399.247
399.123
398.996
398.866
398.735
398.602
398.467
398.332
398.196
398.06
397.923
397.785
397.646
397.505
397.364
397.223
397.081
396.939
396.798
396.658
396.518
396.378
396.241
396.104
396.08
396.059
396.043
396.03
396.022
400
400
400
400
400
399.907
399.809
399.706
399.598
399.485
399.368
399.248
399.125
398.999
398.871
398.74
398.609
398.476
398.342
398.208
398.073
397.938
397.802
397.665
397.526
397.388
397.249
397.11
396.971
396.832
396.694
396.557
396.421
396.286
396.153
396.13
396.111
396.096
396.085
396.078
400
400
400
400
400
399.907
399.809
399.705
399.597
399.484
399.367
399.246
399.123
398.997
398.869
398.739
398.608
398.475
398.342
398.207
398.072
397.937
397.801
397.664
397.527
397.389
397.25
397.112
396.973
396.835
396.698
396.562
396.427
396.293
396.161
396.138
396.12
396.105
396.094
396.089
400
400
400
400
400
399.907
399.809
399.705
399.597
399.484
399.367
399.247
399.123
398.998
398.871
398.741
398.61
398.478
398.344
398.209
398.073
397.938
397.802
397.665
397.528
397.39
397.252
397.113
396.975
396.837
396.7
396.564
396.429
396.296
396.164
396.141
396.123
396.108
396.098
396.093
400
400
400
400
400
399.907
399.809
399.705
399.597
399.484
399.366
399.246
399.123
398.998
398.871
398.742
398.611
398.478
398.343
398.207
398.071
397.935
397.798
397.661
397.524
397.386
397.248
397.109
396.971
396.834
396.696
396.56
396.425
396.292
396.16
396.137
396.119