/*--------------------------------*- C++ -*----------------------------------*\
| =========                 |                                                 |
| \\      /  F ield         | OpenFOAM: The Open Source CFD Toolbox           |
|  \\    /   O peration     | Version:  5.0                                   |
|   \\  /    A nd           | Web:      www.OpenFOAM.org                      |
|    \\/     M anipulation  |                                                 |
\*---------------------------------------------------------------------------*/
FoamFile
{
    version     2.0;
    format      ascii;
    class       volScalarField;
    location    "350/air";
    object      alphat;
}
// * * * * * * * * * * * * * * * * * * * * * * * * * * * * * * * * * * * * * //

dimensions      [1 -1 -1 0 0 0 0];

internalField   nonuniform List<scalar> 
243000
(
0.000186455
0.000186179
0.000181282
0.000174249
0.000166008
0.000157147
0.000148011
0.00013888
0.00012988
0.000121322
0.000113529
0.000106776
9.9796e-05
9.24188e-05
9.73053e-05
0.000136536
0.000158541
0.000173399
0.000180749
0.000180901
0.000177428
0.000173052
0.000167937
0.000162794
0.00015801
0.000153822
0.000151055
0.000149725
0.00015388
0.000160958
0.000886219
0.000898898
0.000893532
0.000879979
0.000862116
0.000840876
0.000816612
0.000789975
0.000761115
0.000731602
0.00070254
0.000676373
0.00064625
0.000615713
0.000687724
0.000926021
0.0010505
0.00113287
0.00116626
0.00115016
0.00110878
0.00106079
0.00100745
0.000954726
0.0009045
0.00085869
0.000820889
0.000790348
0.00077937
0.000780155
0.000989499
0.00100042
0.000992287
0.000975946
0.000955439
0.000931748
0.000905201
0.000876489
0.000845763
0.000814787
0.000784577
0.000757265
0.0007251
0.000695535
0.000795155
0.00103686
0.00116507
0.00124988
0.00128664
0.00127295
0.00123133
0.00118206
0.0011272
0.00107285
0.00102111
0.000974187
0.00093543
0.000904666
0.000892431
0.000895136
0.00106065
0.00107012
0.00106125
0.00104446
0.00102339
0.000999009
0.000971683
0.000942142
0.000910588
0.000878928
0.00084797
0.000819505
0.000785399
0.000757206
0.000876188
0.00111197
0.00123949
0.00132341
0.00136148
0.00135119
0.0013111
0.00126263
0.00120851
0.0011547
0.00110352
0.00105728
0.00101897
0.000989131
0.000976316
0.000980695
0.00111366
0.00112162
0.00111274
0.00109635
0.00107558
0.00105131
0.00102393
0.000994204
0.000962413
0.000930452
0.000898875
0.000869101
0.000833085
0.000806505
0.000938948
0.00116483
0.00128912
0.00137094
0.00140907
0.00140246
0.00136476
0.0013182
0.001266
0.00121389
0.00116435
0.00111971
0.00108268
0.0010543
0.00104144
0.00104696
0.00115507
0.00116166
0.00115302
0.00113729
0.00111714
0.0010933
0.00106619
0.0010366
0.00100485
0.00097275
0.000940538
0.000909257
0.000871331
0.000846545
0.000987903
0.00120224
0.00132199
0.0014013
0.00143883
0.00143581
0.00140096
0.00135696
0.00130734
0.0012576
0.00121031
0.0011678
0.00113252
0.00110588
0.00109341
0.0010996
0.00118858
0.00119396
0.00118559
0.00117057
0.00115107
0.00112774
0.00110101
0.00107167
0.00104008
0.00100784
0.000974901
0.000941909
0.000902028
0.00087917
0.00102588
0.00122828
0.0013429
0.00141947
0.00145633
0.00145659
0.00142486
0.00138381
0.00133718
0.0012902
0.00124554
0.00120548
0.00117226
0.00114754
0.00113576
0.00114233
0.00121643
0.00122074
0.00121259
0.00119817
0.00117923
0.00115635
0.00112998
0.00110091
0.00106946
0.00103702
0.00100321
0.000968296
0.000926396
0.000905582
0.00105486
0.00124558
0.00135488
0.00142851
0.00146502
0.00146815
0.00143978
0.00140192
0.00135851
0.00131457
0.00127276
0.00123536
0.00120443
0.00118172
0.00117089
0.00117766
0.00123998
0.00124334
0.0012353
0.00122132
0.0012028
0.00118027
0.00115418
0.00112532
0.00109394
0.00106118
0.00102633
0.000989314
0.000945163
0.000926732
0.00107634
0.00125594
0.00135979
0.00143114
0.00146713
0.00147277
0.0014481
0.00141359
0.00137348
0.00133264
0.00129382
0.00125924
0.00123076
0.00121014
0.00120042
0.00120731
0.00126009
0.00126254
0.00125451
0.0012408
0.00122254
0.0012002
0.0011743
0.00114556
0.00111415
0.00108092
0.00104485
0.00100551
0.000958967
0.00094437
0.00109142
0.00126056
0.00136018
0.0014289
0.00146407
0.00147184
0.00145082
0.00142008
0.0013835
0.00134591
0.00131001
0.00127832
0.00125242
0.00123394
0.00122547
0.00123244
0.00127725
0.00127881
0.00127066
0.00125706
0.0012389
0.00121664
0.00119081
0.00116209
0.00113053
0.00109671
0.00105919
0.00101722
0.000968738
0.000961725
0.00110148
0.00126084
0.00135584
0.00142212
0.00145698
0.00146666
0.00144883
0.00142185
0.00138917
0.001355
0.00132229
0.00129341
0.00127015
0.00125385
0.00124672
0.00125376
0.00129168
0.00129232
0.00128396
0.00127036
0.00125215
0.00122986
0.001204
0.00117519
0.00114338
0.00110877
0.00106949
0.00102481
0.000977798
0.000978361
0.00111044
0.00125686
0.00134781
0.00141188
0.00144649
0.00145797
0.00144353
0.00141966
0.00139089
0.00136043
0.00133103
0.00130503
0.00128441
0.00127032
0.00126456
0.00127167
0.00130339
0.00130311
0.00129449
0.00128077
0.00126238
0.00123993
0.00121393
0.00118491
0.00115269
0.0011171
0.00107599
0.00102937
0.000987182
0.000994133
0.00111834
0.00125104
0.001337
0.00139869
0.0014331
0.00144627
0.0014349
0.00141437
0.00138899
0.00136235
0.00133646
0.00131354
0.00129544
0.00128353
0.00127916
0.00128632
0.00131223
0.00131109
0.00130214
0.00128819
0.00126961
0.00124698
0.00122082
0.00119155
0.00115884
0.00112224
0.00107964
0.00103426
0.000996733
0.00100892
0.00112526
0.00124589
0.00132633
0.00138351
0.0014174
0.00143192
0.00142335
0.00140606
0.00138399
0.00136074
0.00133855
0.00131888
0.00130334
0.00129353
0.00129051
0.0012977
0.001318
0.00131605
0.0013068
0.00129265
0.00127388
0.00125109
0.00122475
0.00119523
0.001162
0.00112463
0.00108245
0.00103963
0.00100627
0.00102267
0.00113124
0.00124121
0.00131681
0.00137032
0.0014023
0.00141622
0.00140941
0.00139503
0.00137609
0.00135601
0.00133707
0.00132075
0.00130818
0.0013003
0.00129853
0.00130571
0.00132045
0.00131785
0.00130844
0.00129417
0.00127528
0.00125237
0.0012259
0.00119618
0.00116261
0.00112584
0.00108568
0.00104526
0.00101562
0.00103534
0.00113629
0.00123687
0.00130796
0.00135834
0.00138866
0.00140218
0.00139656
0.00138353
0.00136612
0.00134852
0.00133248
0.00131896
0.0013093
0.00130372
0.00130305
0.00131023
0.00131947
0.00131639
0.00130697
0.00129268
0.00127373
0.00125079
0.00122427
0.00119483
0.00116264
0.00112738
0.00108906
0.00105091
0.00102463
0.00104684
0.00114038
0.00123267
0.0012995
0.00134718
0.00137606
0.00138932
0.00138477
0.00137312
0.00135728
0.00134123
0.00132626
0.0013141
0.00130683
0.00130329
0.00130382
0.00131127
0.00131479
0.00131134
0.00130209
0.00128796
0.00126935
0.00124733
0.00122192
0.00119374
0.00116284
0.00112899
0.00109241
0.00105642
0.00103317
0.0010571
0.0011435
0.00122836
0.00129118
0.0013365
0.00136413
0.00137722
0.00137362
0.00136336
0.00134914
0.00133451
0.00132064
0.00130934
0.00130217
0.0012992
0.00130052
0.00130832
0.00130692
0.00130418
0.00129596
0.00128278
0.00126512
0.001244
0.00121965
0.00119266
0.00116299
0.0011305
0.00109558
0.00106167
0.00104116
0.00106608
0.00114567
0.00122376
0.00128289
0.00132596
0.00135255
0.00136551
0.00136277
0.00135384
0.00134121
0.00132793
0.00131515
0.00130467
0.00129771
0.00129448
0.00129469
0.00130147
0.00129949
0.00129717
0.00128978
0.00127746
0.00126073
0.00124052
0.00121723
0.0011914
0.00116294
0.00113178
0.00109848
0.00106657
0.00104851
0.00107374
0.00114663
0.00121867
0.00127437
0.00131532
0.00134104
0.00135386
0.0013519
0.00134424
0.0013331
0.0013211
0.00130939
0.00129967
0.00129298
0.00128958
0.00128898
0.00129397
0.00129188
0.00128981
0.00128316
0.00127166
0.0012559
0.00123667
0.00121445
0.00118978
0.00116257
0.00113272
0.00110103
0.00107105
0.00105516
0.00108004
0.00114645
0.00121293
0.0012654
0.00130436
0.00132932
0.001342
0.00134074
0.00133429
0.00132455
0.00131374
0.00130306
0.00129407
0.00128762
0.00128408
0.00128284
0.00128642
0.00128363
0.00128174
0.00127581
0.00126515
0.00125044
0.00123224
0.00121116
0.00118769
0.00116176
0.00113327
0.0011032
0.00107509
0.00106106
0.001085
0.00114523
0.0012064
0.00125579
0.00129287
0.00131711
0.00132964
0.00132905
0.00132374
0.00131529
0.00130562
0.00129592
0.00128758
0.00128139
0.00127767
0.0012759
0.00127826
0.00127435
0.00127269
0.00126752
0.00125776
0.00124407
0.00122708
0.00120724
0.00118506
0.00116048
0.00113344
0.00110498
0.00107867
0.00106621
0.00108864
0.00114284
0.00119897
0.00124538
0.00128064
0.00130419
0.00131655
0.00131657
0.00131234
0.0013051
0.00129648
0.0012877
0.00127998
0.00127402
0.00127012
0.00126782
0.00126908
0.00126372
0.00126243
0.00125809
0.00124932
0.00123675
0.00122101
0.00120261
0.00118184
0.00115871
0.00113325
0.00110647
0.00108189
0.00107065
0.00109109
0.00113936
0.00119062
0.00123408
0.00126758
0.00129042
0.00130252
0.00130311
0.00129986
0.00129373
0.00128613
0.00127821
0.00127104
0.00126525
0.00126112
0.00125832
0.00125851
0.00125149
0.00125074
0.00124736
0.00123972
0.0012284
0.00121407
0.0011972
0.00117804
0.00115654
0.00113286
0.00110795
0.0010851
0.00107477
0.0010926
0.00113519
0.00118169
0.00122214
0.00125382
0.00127584
0.00128757
0.00128864
0.00128625
0.00128115
0.00127451
0.0012674
0.00126072
0.00125503
0.00125058
0.00124719
0.00124632
0.00123746
0.0012375
0.00123526
0.00122894
0.00121908
0.00120642
0.00119136
0.00117402
0.00115463
0.00113331
0.00111045
0.00108962
0.00108009
0.00109511
0.00113193
0.00117359
0.00121077
0.00124037
0.00126122
0.00127234
0.00127366
0.00127192
0.00126765
0.00126182
0.00125537
0.00124904
0.00124332
0.00123843
0.00123432
0.00123242
0.00122205
0.00122319
0.00122242
0.00121775
0.00120987
0.0011995
0.00118699
0.0011726
0.00115618
0.00113782
0.00111829
0.00110062
0.00109211
0.00110428
0.00113522
0.00117145
0.00120452
0.0012312
0.00125001
0.00125976
0.00126088
0.00125924
0.00125528
0.00124976
0.00124351
0.00123713
0.00123102
0.00122538
0.00122032
0.00121732
0.00120923
0.00121246
0.00121405
0.00121241
0.00120825
0.00120227
0.00119474
0.0011857
0.001175
0.00116265
0.00114918
0.00113689
0.00113085
0.00114004
0.00116425
0.00119303
0.00121954
0.00124083
0.00125535
0.00126199
0.00126167
0.00125881
0.00125375
0.00124717
0.00123979
0.00123208
0.00122437
0.00121684
0.00120986
0.00120503
0.00123742
0.00124498
0.00125219
0.00125782
0.00126235
0.00126635
0.00126925
0.00127054
0.00126999
0.00126749
0.00126312
0.00125857
0.00125602
0.00126113
0.00127489
0.00129132
0.0013061
0.00131792
0.00132452
0.00132558
0.00132193
0.00131616
0.00130834
0.00129899
0.00128865
0.0012776
0.00126625
0.0012547
0.00124344
0.00123445
0.00152161
0.00153214
0.00154221
0.00155203
0.0015617
0.00157163
0.00157813
0.00158082
0.00158071
0.00157818
0.0015733
0.00156844
0.00156276
0.00155891
0.00155672
0.00155631
0.00155714
0.00155979
0.00156051
0.00156041
0.00156058
0.00156117
0.00156109
0.00155967
0.00155667
0.00155193
0.00154576
0.00153806
0.00152946
0.00152094
0.000236304
0.000236445
0.000229691
0.000220042
0.000208712
0.000196532
0.000183929
0.000171329
0.000158915
0.000147458
0.000137711
0.000131274
0.000128638
0.0001388
0.000162644
0.00019179
0.000214268
0.000232852
0.000242429
0.000242425
0.000238585
0.000233412
0.000227514
0.000221773
0.000216657
0.000212451
0.000209839
0.000208177
0.000209759
0.000213106
0.00119227
0.00119756
0.0011042
0.0010036
0.000917755
0.000844424
0.000780852
0.000726869
0.000680504
0.000643825
0.000608216
0.000588367
0.000586251
0.000649748
0.000750551
0.000890673
0.00100891
0.00111864
0.00117305
0.00115153
0.00110971
0.00106353
0.00101549
0.000974775
0.000940496
0.000913586
0.000896653
0.000880868
0.000866798
0.000878404
0.00210691
0.00221541
0.00211966
0.00196575
0.00181164
0.00166982
0.00154235
0.00143274
0.00133895
0.00126122
0.00118561
0.00113584
0.00111633
0.00122204
0.00140203
0.00166032
0.00187195
0.00206167
0.00217217
0.00215194
0.00208013
0.00199669
0.00190963
0.0018344
0.00176921
0.00172253
0.00169474
0.00167411
0.00165213
0.0016899
0.00289899
0.00311005
0.00304274
0.0028715
0.00267323
0.00247587
0.0022915
0.00213041
0.00198676
0.00186816
0.00175601
0.00167423
0.00163729
0.00177543
0.00201391
0.00235852
0.00264086
0.00288215
0.0030402
0.00303901
0.0029525
0.00284707
0.00273606
0.00264055
0.00255972
0.00250288
0.00246867
0.0024408
0.00241809
0.00248902
0.0036115
0.00389124
0.00385743
0.0036847
0.00346061
0.00322227
0.00299234
0.00278642
0.00260082
0.00244458
0.00230137
0.00218913
0.00213866
0.00229868
0.00257739
0.0029774
0.00330854
0.00358313
0.00377705
0.00380493
0.00371651
0.00360245
0.00348086
0.0033775
0.00329133
0.0032317
0.00319758
0.00317063
0.00315261
0.0032529
0.00426505
0.00457344
0.00457189
0.00440334
0.00416525
0.00389898
0.00363531
0.00339023
0.00317174
0.00298432
0.00281576
0.00267633
0.00261716
0.00279871
0.00309335
0.00352283
0.00388313
0.00418212
0.00440116
0.00446263
0.00438302
0.00427108
0.00414967
0.0040459
0.00396298
0.00390581
0.00387569
0.00385777
0.00384865
0.00397056
0.00486789
0.00517519
0.00518648
0.00503228
0.00478804
0.00450434
0.00421537
0.00394298
0.00369756
0.00348489
0.00329592
0.00313319
0.00307046
0.0032607
0.00356302
0.00400231
0.00437694
0.0046907
0.00493113
0.00502594
0.00496433
0.00486328
0.00475042
0.00465353
0.00457801
0.00452708
0.00450402
0.00449661
0.00449852
0.00463526
0.00542255
0.00570974
0.00572463
0.00557978
0.00533363
0.00503957
0.00473452
0.00444283
0.00417714
0.00394505
0.00373914
0.00355729
0.00350527
0.00368407
0.0039875
0.00442274
0.00479972
0.00511839
0.00538103
0.00550582
0.00547086
0.00538764
0.00528925
0.00520458
0.00513925
0.00509808
0.00508451
0.00508845
0.00510256
0.00524789
0.00592802
0.00618306
0.00619383
0.00605201
0.00580616
0.00550758
0.00519347
0.00488938
0.00460983
0.00436364
0.00414378
0.00395044
0.00391022
0.00407005
0.00436894
0.00478967
0.00515853
0.00548321
0.00576298
0.00591126
0.00591088
0.00585087
0.00577033
0.00570113
0.00564832
0.00562016
0.00561792
0.00563364
0.00566001
0.00580852
0.00638284
0.00659797
0.00659679
0.00645384
0.00620967
0.00591117
0.00559352
0.00528305
0.00499533
0.00473961
0.00450871
0.00431475
0.00427523
0.00441436
0.00470639
0.00510729
0.00546982
0.00579994
0.00607993
0.00624936
0.00628651
0.006258
0.00619703
0.00614376
0.00610533
0.00609277
0.00610311
0.00613042
0.00616828
0.00631505
0.00678763
0.00695577
0.00693658
0.00678953
0.00654781
0.0062526
0.00593623
0.00562451
0.00533386
0.00507287
0.00483681
0.00463843
0.00459457
0.00471038
0.00499935
0.00537808
0.00573656
0.00605025
0.00633765
0.00652664
0.00658584
0.00660277
0.0065715
0.0065332
0.00650959
0.00651376
0.00653688
0.006575
0.00662277
0.00676335
0.00713706
0.00725592
0.00721543
0.00706272
0.0068241
0.00653455
0.00622313
0.00591465
0.00562568
0.00536191
0.00512305
0.00492024
0.0048639
0.0049639
0.00524389
0.00560783
0.0059481
0.0062524
0.00654021
0.00674813
0.00683261
0.00687387
0.0068845
0.00687127
0.00686075
0.00688019
0.00691506
0.0069623
0.00701744
0.00714818
0.00742533
0.00749703
0.00743482
0.00727625
0.00704139
0.00675942
0.00645593
0.00615472
0.00587014
0.00560856
0.00536922
0.00516136
0.00509054
0.00518407
0.00544825
0.00579877
0.0061179
0.00641015
0.0066914
0.00691529
0.00701961
0.00708487
0.00712802
0.007148
0.0071613
0.0071908
0.00723416
0.00728744
0.0073459
0.00745805
0.00764829
0.00767801
0.00759578
0.00743192
0.00720157
0.00692892
0.00663674
0.0063457
0.00606889
0.00581484
0.00557667
0.00535982
0.00528006
0.00536448
0.00560729
0.00593282
0.00623771
0.00652682
0.00679497
0.00702883
0.00714937
0.00723989
0.00729971
0.00735379
0.00739867
0.00744757
0.00749481
0.00754813
0.00760296
0.00769165
0.00780387
0.007798
0.00769812
0.00752973
0.00730469
0.00704319
0.00676614
0.00649036
0.0062256
0.00598031
0.00574256
0.00551742
0.00542986
0.00550011
0.00571676
0.00600874
0.00629205
0.00657217
0.00683677
0.00708719
0.00722186
0.00733101
0.00741172
0.00748084
0.00755974
0.00763376
0.00769588
0.00774895
0.00779111
0.00785378
0.00789122
0.00785512
0.00774368
0.00757696
0.00736061
0.00711363
0.00685222
0.0065962
0.00634881
0.00610169
0.00585557
0.00563404
0.00554166
0.0055942
0.00577404
0.00602671
0.00628192
0.00654748
0.00680374
0.00705705
0.0072141
0.00735155
0.0074591
0.00754481
0.00764214
0.00773513
0.00782037
0.00788295
0.00792231
0.00795561
0.00792518
0.00786302
0.00774584
0.00758332
0.00737729
0.00714808
0.00690554
0.0066613
0.00641674
0.00616377
0.00591579
0.00569743
0.00559864
0.00563401
0.00577782
0.00598871
0.00621086
0.00645427
0.0066994
0.00695409
0.00713415
0.00729577
0.00742896
0.00754313
0.00765943
0.00776501
0.00785861
0.00793334
0.00798127
0.00800492
0.00791203
0.00782841
0.00770868
0.00755251
0.00735589
0.00713491
0.00690195
0.00666515
0.00642304
0.00617031
0.0059259
0.00571261
0.00560514
0.00562162
0.00572903
0.00589854
0.00608458
0.00630537
0.00653333
0.00677542
0.00697115
0.00716568
0.00733594
0.00747502
0.00760586
0.00772588
0.00783508
0.00791537
0.00796435
0.00798575
0.00785189
0.00774638
0.00761655
0.00745714
0.00726454
0.00705673
0.00683752
0.00661144
0.00637444
0.00612544
0.00588878
0.00568079
0.00556373
0.00555918
0.00563036
0.00575958
0.00590937
0.00610589
0.00631258
0.0065394
0.00674138
0.00695072
0.00714274
0.00731533
0.00747186
0.00760806
0.00773037
0.00782438
0.00788765
0.00792275
0.00767981
0.00756379
0.00743707
0.00728714
0.00711094
0.00692085
0.00671764
0.00650346
0.00627363
0.00603348
0.00580749
0.00560353
0.00547627
0.00544921
0.00548563
0.0055756
0.00569183
0.00586302
0.00604624
0.00625674
0.00645921
0.00667688
0.0068824
0.00706982
0.00724105
0.00739507
0.00753069
0.00763784
0.00771297
0.00776813
0.0074165
0.00729986
0.00718531
0.00705317
0.00690328
0.00673284
0.00654559
0.00634325
0.00612705
0.00589835
0.00568366
0.00548177
0.00534501
0.0052947
0.00529887
0.0053519
0.00543828
0.0055837
0.00574283
0.0059364
0.00613597
0.00635787
0.0065708
0.00676847
0.00694871
0.00711049
0.00725271
0.00736608
0.00744997
0.00751802
0.00708367
0.00697795
0.00687903
0.00677405
0.00664781
0.0064953
0.00632516
0.00614076
0.0059385
0.00572196
0.00551561
0.00531487
0.00517051
0.00509771
0.00507336
0.0050948
0.0051564
0.00527403
0.00540948
0.00558573
0.00578079
0.00600307
0.00622023
0.0064214
0.00660565
0.00677152
0.0069172
0.0070344
0.00711899
0.00718841
0.00669985
0.0066135
0.00653798
0.00645516
0.00634623
0.00621706
0.00606693
0.00589748
0.0057065
0.00550047
0.00529878
0.0050994
0.0049493
0.00485767
0.00481016
0.00480647
0.00484997
0.00493853
0.00505144
0.00521038
0.00540033
0.00561942
0.00583418
0.0060337
0.0062183
0.00638556
0.00653216
0.00665006
0.00673638
0.00680015
0.00628063
0.00622248
0.00616689
0.0061021
0.00601298
0.00590163
0.00576652
0.00560748
0.00542348
0.00522371
0.00502346
0.00482616
0.00467295
0.00457049
0.0045073
0.0044866
0.00451458
0.00458241
0.00467722
0.00481538
0.00499713
0.00520513
0.00541351
0.00561216
0.00579509
0.00595794
0.00609901
0.00621638
0.00630476
0.00636694
0.00583884
0.005805
0.00576948
0.00571918
0.00564139
0.00553988
0.00541144
0.00525534
0.00507286
0.00487473
0.00467488
0.00448236
0.00433026
0.00423162
0.00416269
0.00413588
0.00415525
0.00420476
0.00428202
0.00440413
0.00457294
0.00477174
0.00497489
0.0051718
0.00535444
0.00551556
0.00565346
0.00576352
0.00584242
0.00589532
0.00536838
0.00535424
0.00533045
0.00528494
0.00521026
0.00510877
0.00497868
0.0048192
0.00463674
0.00444152
0.00424829
0.00406954
0.0039316
0.00384688
0.00378921
0.00376936
0.00378196
0.0038216
0.00388518
0.00398992
0.00413729
0.00431691
0.00450563
0.00469336
0.00487132
0.00503128
0.00516807
0.0052758
0.0053516
0.00540056
0.00484451
0.00484067
0.00481693
0.00476618
0.00468737
0.00458388
0.00445634
0.00430571
0.00413742
0.00396234
0.00379544
0.00364902
0.00354168
0.00348016
0.00344647
0.00343808
0.00345022
0.00348187
0.00353303
0.00361323
0.00372645
0.00387244
0.00402915
0.00418909
0.00434642
0.00449298
0.0046221
0.00472737
0.00480383
0.00485524
0.00424457
0.00424472
0.00422223
0.00417578
0.00410915
0.00402729
0.00393111
0.00381982
0.00369691
0.00357148
0.00345531
0.0033577
0.00328747
0.00324974
0.00323319
0.00323085
0.00324006
0.00326371
0.00329648
0.0033464
0.00341982
0.00352324
0.00362998
0.00373962
0.00385026
0.00395535
0.00405132
0.00413339
0.00419553
0.00424084
0.0037072
0.00372406
0.00372334
0.00370612
0.00367695
0.00363923
0.00359195
0.0035336
0.00346273
0.00338365
0.00330797
0.00324754
0.00320044
0.00317107
0.00315311
0.00315083
0.00316023
0.00317767
0.00319625
0.00322219
0.00325651
0.00330398
0.00335848
0.00342135
0.00349015
0.00355455
0.0036138
0.00366424
0.0036898
0.00370188
0.0033714
0.00340823
0.00342821
0.0034331
0.00342892
0.00341749
0.00339829
0.00337235
0.00333454
0.00329376
0.00325644
0.0032255
0.00319962
0.00318275
0.00317228
0.0031747
0.0031848
0.00320072
0.00321486
0.00322859
0.00324509
0.00326581
0.00328994
0.00331522
0.00333888
0.00335672
0.0033672
0.00336967
0.0033678
0.00336665
0.000268044
0.000267604
0.000260341
0.000250142
0.000237999
0.000224807
0.000211082
0.000197419
0.000184103
0.000172319
0.000162907
0.000160134
0.000168445
0.000189289
0.000214715
0.00024208
0.000263998
0.0002835
0.000293024
0.000291582
0.00028636
0.000279882
0.000272817
0.000266006
0.000259903
0.000254762
0.000251056
0.000247869
0.000246539
0.000245916
0.00148587
0.00156843
0.00147975
0.00136525
0.00126084
0.00116699
0.00108275
0.0010089
0.000944561
0.000893139
0.000838311
0.000825115
0.000871966
0.000999837
0.00116503
0.0013552
0.00150544
0.00164387
0.0017138
0.00166809
0.0015927
0.00151049
0.00142785
0.00135748
0.00129897
0.00125277
0.0012184
0.00117976
0.00112858
0.00110458
0.00272494
0.0029803
0.00291222
0.00274056
0.00255077
0.00236512
0.0021927
0.0020411
0.00191087
0.00180612
0.00169557
0.00165405
0.00171964
0.00194253
0.00223317
0.00257034
0.00282485
0.00305538
0.00320544
0.00314962
0.00302189
0.00287392
0.00272427
0.00259527
0.00248965
0.00240785
0.00234804
0.00228373
0.00220995
0.00221109
0.00385823
0.00424911
0.00422672
0.00403677
0.00378831
0.00352787
0.003277
0.00305438
0.00286403
0.00270759
0.00254659
0.00248233
0.00255674
0.00284561
0.00321488
0.00364528
0.00397061
0.00425557
0.0044726
0.00443137
0.00427714
0.00408973
0.00389887
0.00373435
0.00360202
0.00350249
0.00343157
0.00336328
0.00329339
0.00334218
0.0049065
0.00539733
0.00541222
0.00521554
0.0049268
0.00460886
0.00429482
0.00401219
0.00377035
0.00356802
0.00336826
0.00328367
0.00336744
0.00369221
0.00410426
0.00458725
0.00495712
0.00527798
0.00554479
0.0055325
0.00537172
0.00516643
0.00495589
0.00477559
0.0046335
0.00453015
0.0044622
0.00440173
0.00434613
0.00444488
0.00590356
0.00645092
0.00647924
0.00627678
0.00595968
0.00559903
0.00523716
0.00490659
0.00462178
0.00438178
0.00415167
0.00405426
0.0041461
0.0044817
0.00491177
0.00541839
0.00581131
0.00616044
0.00646256
0.00648714
0.00633649
0.00613015
0.00591662
0.00573562
0.00559614
0.00549826
0.00543919
0.00539443
0.00535966
0.00550268
0.00685367
0.00739291
0.00743237
0.00722456
0.00688765
0.00649724
0.00610084
0.00573499
0.00541644
0.00514582
0.00489438
0.00478997
0.00488674
0.00521687
0.00564687
0.00615671
0.00655824
0.00692477
0.00725759
0.00732174
0.00719556
0.0070018
0.00679767
0.0066273
0.00649937
0.0064123
0.00636711
0.00634354
0.00633428
0.00651097
0.00774794
0.00822767
0.00827606
0.00806361
0.00771325
0.00730427
0.00688549
0.00649561
0.00615355
0.0058607
0.00559327
0.00548471
0.00558463
0.00589906
0.00631617
0.00681493
0.00721457
0.00758765
0.00794938
0.00805427
0.00796583
0.00779531
0.00760843
0.00745658
0.00734633
0.00727406
0.00724809
0.00724847
0.00726832
0.00746712
0.00857549
0.00898158
0.00901893
0.00881103
0.00844594
0.00802142
0.00759127
0.00718772
0.00683152
0.00652304
0.00624388
0.00613497
0.00623763
0.00652818
0.00692386
0.00740131
0.00778967
0.00818547
0.00855063
0.00868755
0.00865618
0.00851637
0.00835298
0.00822358
0.00813517
0.00808416
0.00807966
0.00810612
0.0081535
0.0083656
0.00932653
0.00965627
0.00966647
0.00945202
0.00908739
0.00865973
0.00821978
0.00781034
0.00744769
0.0071298
0.00684361
0.00673745
0.00683922
0.00710213
0.00747134
0.00792096
0.00830578
0.00869022
0.00906949
0.00923367
0.00925369
0.00916179
0.00903004
0.00892492
0.00885973
0.00883559
0.00885626
0.00890663
0.00897805
0.00919426
0.00999859
0.0102466
0.0102202
0.00999542
0.00963164
0.00920863
0.00877459
0.00836545
0.00800257
0.00767943
0.00738999
0.00728903
0.00738247
0.00761766
0.00795734
0.00837455
0.00875089
0.00911996
0.00950777
0.00969823
0.00975658
0.00972308
0.00963519
0.00955598
0.0095141
0.00952136
0.00956527
0.00963605
0.00972628
0.00993708
0.0105846
0.0107487
0.010683
0.0104466
0.0100891
0.00967512
0.00925009
0.00885086
0.00849513
0.0081709
0.0078811
0.00778478
0.00786144
0.00806998
0.00837763
0.0087589
0.00911722
0.00947396
0.00986319
0.0100789
0.0101745
0.0101979
0.0101587
0.0101104
0.0100954
0.01013
0.0101929
0.0102783
0.0103821
0.0105743
0.0110704
0.0111587
0.0110568
0.0108111
0.0104629
0.0100623
0.00965124
0.0092649
0.00892104
0.00860131
0.00831632
0.008221
0.0082687
0.00845146
0.00872405
0.00906638
0.00940928
0.00974845
0.0101318
0.0103718
0.0105058
0.010579
0.0105922
0.0105829
0.0105973
0.0106517
0.010727
0.0108209
0.0109241
0.0110821
0.0114497
0.0114751
0.0113443
0.0110937
0.010756
0.0103721
0.00997926
0.00960968
0.00927855
0.00896395
0.00868787
0.00859587
0.00861326
0.00875657
0.00898713
0.00928305
0.00960284
0.00993026
0.0103059
0.0105694
0.0107416
0.0108537
0.0109251
0.0109656
0.0110172
0.0110825
0.0111636
0.0112585
0.0113474
0.0114703
0.0117229
0.0117007
0.0115474
0.0112962
0.0109721
0.0106072
0.0102357
0.00988547
0.0095695
0.0092546
0.00897688
0.00889531
0.00889377
0.00898396
0.00915957
0.00940332
0.00969087
0.0100063
0.0103669
0.0106549
0.0108665
0.0110212
0.0111479
0.0112487
0.0113402
0.0114282
0.0115092
0.0115927
0.0116671
0.0117523
0.0118939
0.0118345
0.0116658
0.0114194
0.011113
0.0107696
0.0104225
0.0100906
0.0097831
0.00947048
0.00918761
0.00909343
0.0090676
0.00911623
0.00923574
0.00941957
0.00967019
0.00997123
0.0103098
0.0106216
0.0108716
0.0110799
0.0112656
0.0114234
0.0115525
0.0116673
0.011766
0.0118462
0.0119029
0.0119472
0.0119795
0.0118852
0.0117064
0.0114653
0.0111792
0.0108584
0.0105302
0.0102132
0.00991391
0.00960549
0.00932027
0.00920602
0.0091461
0.00914969
0.00921273
0.00933886
0.00954423
0.00982381
0.0101374
0.0104678
0.0107699
0.0110443
0.0112768
0.0114768
0.0116482
0.0117921
0.0119087
0.0120007
0.012061
0.0120807
0.0119946
0.0118658
0.0116765
0.0114395
0.0111628
0.0108627
0.0105535
0.0102507
0.00995837
0.00965293
0.00937039
0.00922854
0.00913059
0.00908506
0.00908966
0.00915747
0.00931586
0.00956555
0.00985564
0.010191
0.0105117
0.0108304
0.0111244
0.0113881
0.011603
0.0117779
0.0119202
0.0120291
0.0120977
0.012121
0.0119271
0.0117604
0.0115624
0.0113316
0.0110653
0.0107819
0.0104898
0.0101996
0.00991244
0.00960852
0.00932984
0.00915759
0.00901826
0.00892125
0.00886743
0.00887529
0.00898936
0.00920144
0.00946889
0.00980324
0.0101351
0.0104886
0.0108175
0.0111196
0.0113915
0.0116192
0.0117961
0.0119289
0.0120135
0.0120528
0.0117438
0.0115566
0.0113588
0.0111358
0.010879
0.0106121
0.010335
0.0100551
0.00977099
0.00946712
0.00918927
0.00899001
0.00880691
0.00865844
0.00854887
0.00850029
0.00857043
0.00874069
0.00898356
0.00931168
0.00965151
0.0100289
0.0103902
0.0107259
0.0110317
0.0112973
0.0115241
0.0116974
0.0118113
0.0118732
0.0114216
0.0112371
0.011057
0.0108389
0.0106
0.0103475
0.0100832
0.0098108
0.00952742
0.0092224
0.00894205
0.00871832
0.00849486
0.00829807
0.00813843
0.00803951
0.00806759
0.00819447
0.00840959
0.00872524
0.00906996
0.00946195
0.00985154
0.0102142
0.0105476
0.0108467
0.0111089
0.0113166
0.0114642
0.0115625
0.0109675
0.0108156
0.0106424
0.010441
0.0102187
0.0099803
0.00972643
0.00945846
0.0091733
0.00886676
0.00858084
0.00833322
0.00808166
0.00784307
0.00764236
0.00750247
0.00749158
0.00757628
0.00776046
0.00805604
0.00840222
0.008799
0.00920753
0.00958664
0.00993862
0.010265
0.0105589
0.0108038
0.0109893
0.0111176
0.0103989
0.0102739
0.010116
0.00993246
0.00972667
0.00950104
0.00925469
0.00898785
0.00869904
0.00839181
0.00809863
0.00783004
0.00756522
0.0072986
0.0070698
0.00690196
0.00685501
0.00690253
0.00705461
0.00732147
0.00766103
0.00805403
0.00846541
0.0088557
0.0092255
0.00956386
0.0098697
0.0101423
0.0103648
0.0105229
0.00969424
0.00960609
0.00946664
0.00930418
0.0091142
0.00889839
0.00865652
0.00838929
0.00809765
0.00779069
0.00749357
0.0072147
0.00694516
0.00667691
0.00643597
0.00625395
0.00617748
0.00619551
0.00631587
0.00654666
0.00686356
0.00724374
0.00765625
0.00805801
0.00843851
0.00878955
0.0091023
0.00937792
0.00960823
0.00977827
0.00887015
0.00880486
0.008691
0.00854561
0.00836751
0.00815947
0.00792208
0.00765763
0.00736946
0.00707043
0.00678031
0.00650722
0.00625011
0.0060004
0.00576993
0.00558708
0.0054892
0.00548672
0.00558717
0.00577395
0.00604166
0.00639251
0.00678567
0.00718422
0.00756216
0.00791475
0.0082275
0.00850922
0.00874628
0.00891936
0.00791214
0.00787122
0.00777796
0.0076483
0.00748253
0.00728732
0.00706361
0.00681534
0.00654723
0.00627349
0.0060101
0.00576413
0.00553831
0.00532496
0.00512447
0.00494946
0.00486758
0.004873
0.00495856
0.00510348
0.00530443
0.00556663
0.00589634
0.00626804
0.00662055
0.00695655
0.00725636
0.00752728
0.00775531
0.00792476
0.00684075
0.00682019
0.00674898
0.00664368
0.00650402
0.00634012
0.00615302
0.00594641
0.00572355
0.00549888
0.0052848
0.00508518
0.00490269
0.00473224
0.00456871
0.0044434
0.00439646
0.00440662
0.00447357
0.00458116
0.00472365
0.00490582
0.00512353
0.00537711
0.00567949
0.00597794
0.00623811
0.00647453
0.00667292
0.00682755
0.00576903
0.0057688
0.00573203
0.00566953
0.00557833
0.00546901
0.00534143
0.0051972
0.00503541
0.00487141
0.00471513
0.0045639
0.00441635
0.00429281
0.00418552
0.00410078
0.0040729
0.00408917
0.00414037
0.00421293
0.00430991
0.00443352
0.00457388
0.00471852
0.00488855
0.0050811
0.00528924
0.00548406
0.00563281
0.00574575
0.00487201
0.00490532
0.00492092
0.00491083
0.0048706
0.00481339
0.00473927
0.00464756
0.00453045
0.00440911
0.00429998
0.00419046
0.00408479
0.0039962
0.00392307
0.00387084
0.00386545
0.00389529
0.00393841
0.00398649
0.0040478
0.00411433
0.00419003
0.00427444
0.00436754
0.00447422
0.00457809
0.00465975
0.00475094
0.00483714
0.00419197
0.00422679
0.00424732
0.00425793
0.00425943