/*--------------------------------*- C++ -*----------------------------------*\
| =========                 |                                                 |
| \\      /  F ield         | OpenFOAM: The Open Source CFD Toolbox           |
|  \\    /   O peration     | Version:  5.0                                   |
|   \\  /    A nd           | Web:      www.OpenFOAM.org                      |
|    \\/     M anipulation  |                                                 |
\*---------------------------------------------------------------------------*/
FoamFile
{
    version     2.0;
    format      ascii;
    class       volScalarField;
    location    "350/air";
    object      epsilon;
}
// * * * * * * * * * * * * * * * * * * * * * * * * * * * * * * * * * * * * * //

dimensions      [0 2 -3 0 0 0 0];

internalField   nonuniform List<scalar> 
243000
(
4.64528
5.38731
5.76951
5.91518
5.87222
5.68034
5.36852
4.96943
4.50523
4.02046
3.5577
3.15034
2.68891
2.21044
2.94265
7.77276
11.5667
14.4947
15.5561
14.5872
12.7037
10.7555
8.87198
7.22257
5.85063
4.74374
3.91946
3.30669
3.08686
3.02256
3.16691
3.30245
3.24425
3.09962
2.91588
2.70699
2.48055
2.24664
2.00981
1.78519
1.5804
1.40986
1.22672
1.07005
1.66365
3.7836
5.40125
6.71123
7.28617
6.96577
6.22669
5.44779
4.66697
3.97483
3.38467
2.90056
2.53708
2.26525
2.16992
2.17285
4.40995
4.55463
4.44554
4.23128
3.97255
3.68676
3.38257
3.07243
2.76148
2.4696
2.20455
1.98168
1.73635
1.55494
2.54932
5.28573
7.35155
9.00063
9.77021
9.43226
8.51846
7.52932
6.529
5.63268
4.86231
4.22775
3.74658
3.39028
3.253
3.27914
5.43225
5.57669
5.44077
5.1893
4.88486
4.54727
4.18693
3.8187
3.44912
3.1025
2.78546
2.5134
2.20946
2.01899
3.38306
6.49868
8.83875
10.6742
11.5667
11.2724
10.2768
9.17039
8.04076
7.01733
6.13103
5.39789
4.83597
4.42496
4.25439
4.30853
6.28951
6.42414
6.27496
6.00514
5.67423
5.30248
4.90196
4.48985
4.07446
3.68274
3.31947
2.99926
2.63993
2.45383
4.13479
7.45243
9.9341
11.8588
12.817
12.6008
11.5878
10.4331
9.24157
8.15026
7.19835
6.40746
5.79618
5.35377
5.16013
5.2393
7.02027
7.14103
6.98569
6.70771
6.36153
5.96682
5.5371
5.09139
4.63969
4.20989
3.80412
3.4358
3.02412
2.85347
4.78825
8.17979
10.7078
12.661
13.6453
13.5217
12.5361
11.3826
10.1786
9.06381
8.0846
7.26768
6.63194
6.17645
5.97007
6.06878
7.65362
7.75907
7.60035
7.31918
6.96349
6.55228
6.10036
5.62829
5.14687
4.68368
4.23773
3.82075
3.3593
3.21309
5.3368
8.71244
11.2226
13.1616
14.1519
14.1221
13.1943
12.0778
10.8974
9.79222
8.81473
7.99602
7.35593
6.90149
6.69168
6.805
8.21045
8.30013
8.13849
7.85536
7.49236
7.0679
6.59809
6.10431
5.59765
5.10399
4.61894
4.15239
3.64352
3.52902
5.77978
9.07921
11.5282
13.4213
14.4136
14.4708
13.6231
12.5682
11.4369
10.3662
9.41237
8.61093
7.98259
7.54022
7.33511
7.45936
8.70486
8.77833
8.61267
8.32671
7.95648
7.5201
7.03473
6.52218
5.99302
5.47059
4.9467
4.43017
3.8745
3.79908
6.12078
9.30472
11.6607
13.5015
14.4859
14.6219
13.8739
12.8975
11.8312
10.8113
9.89783
9.12852
8.52486
8.10357
7.90991
8.04277
9.14551
9.20168
9.02997
8.73934
8.36091
7.91274
7.41307
6.88349
6.33351
5.7831
5.22041
4.6528
4.05234
4.02854
6.36566
9.4089
11.6769
13.4507
14.4121
14.6088
13.9746
13.093
12.108
11.1508
10.287
9.56132
8.99272
8.59983
8.42326
8.5632
9.53608
9.57322
9.39325
9.09597
8.708
8.24774
7.7344
7.18889
6.61914
6.04148
5.43902
4.8189
4.18442
4.25839
6.52663
9.41803
11.5767
13.2747
14.2206
14.4748
13.9378
13.166
12.276
11.3956
10.5931
9.91755
9.3922
9.03379
8.87888
9.02486
9.87579
9.89201
9.7021
9.39657
8.99787
8.52527
7.9987
7.4381
6.84971
6.24423
5.59981
4.92963
4.31359
4.48348
6.64548
9.33735
11.3845
13.0061
13.9345
14.2396
13.8068
13.1275
12.3453
11.5518
10.8217
10.2018
9.72573
9.40659
9.27678
9.4278
10.1602
10.1543
9.95365
9.63881
9.22783
8.74268
8.20309
7.62788
7.02066
6.38681
5.70293
4.99848
4.44878
4.70195
6.75419
9.20352
11.1238
12.6621
13.5703
13.9204
13.5846
13.003
12.3167
11.6231
10.9729
10.418
9.9927
9.71625
9.61364
9.76862
10.3823
10.3545
10.1425
9.81674
9.39469
8.89862
8.34791
7.75983
7.13534
6.47614
5.7622
5.0771
4.58797
4.91188
6.85215
9.08877
10.8586
12.2677
13.1471
13.5301
13.282
12.7994
12.2059
11.6032
11.0451
10.5621
10.1909
9.9586
9.8841
10.0419
10.5334
10.4848
10.2621
9.92783
9.49692
8.99233
8.43302
7.83475
7.19559
6.51882
5.81272
5.16336
4.72882
5.11114
6.9381
8.98583
10.6272
11.9239
12.7375
13.0993
12.9158
12.522
12.0201
11.5032
11.0279
10.6261
10.319
10.1288
10.082
10.2412
10.6054
10.5388
10.3099
9.97041
9.53424
9.02468
8.46014
7.85568
7.20853
6.54418
5.8699
5.25364
4.86896
5.29789
7.01092
8.88927
10.4186
11.6184
12.3766
12.7239
12.5738
12.2241
11.7719
11.3331
10.9318
10.5997
10.3623
10.2218
10.201
10.36
10.5933
10.5148
10.2845
9.94353
9.50568
8.99521
8.42971
7.83353
7.21353
6.57527
5.92962
5.34469
5.00577
5.46972
7.0695
8.79637
10.2229
11.3397
12.0507
12.3875
12.2669
11.9603
11.5566
11.1578
10.7875
10.4976
10.3171
10.2263
10.2314
10.3957
10.4918
10.4034
10.1779
9.84147
9.41416
8.92656
8.3866
7.81644
7.22139
6.60755
5.98879
5.4341
5.13717
5.62474
7.11319
8.70256
10.0335
11.0784
11.7483
12.0765
11.9822
11.7169
11.3606
10.9986
10.6586
10.3895
10.2136
10.1427
10.1662
10.3371
10.3116
10.2407
10.0411
9.72955
9.32621
8.86065
8.34492
7.79951
7.22811
6.63773
6.045
5.51987
5.26139
5.76121
7.13964
8.60368
9.84565
10.8262
11.4604
11.7802
11.7094
11.4827
11.1705
10.8441
10.5335
10.2845
10.1154
10.038
10.037
10.1853
10.1434
10.0828
9.90403
9.61501
9.23475
8.79151
8.29988
7.77873
7.23061
6.66347
6.09658
5.60047
5.37676
5.87769
7.14563
8.49594
9.65507
10.5756
11.1788
11.4903
11.4404
11.2494
10.9774
10.6846
10.4024
10.1723
10.0113
9.92992
9.91083
10.017
9.97245
9.91782
9.75768
9.49022
9.13414
8.71446
8.24752
7.75068
7.22695
6.68309
6.14219
5.67463
5.48183
5.97301
7.13374
8.37607
9.45685
10.321
10.8966
11.1994
11.1682
11.0102
10.7748
10.5136
10.2588
10.0465
9.89321
9.80888
9.77596
9.84883
9.78794
9.73783
9.59557
9.34989
9.01996
8.62542
8.1844
7.71322
7.21493
6.69557
6.18109
5.74152
5.57532
6.04657
7.1024
8.24124
9.24702
10.0571
10.6076
10.901
10.8867
10.7592
10.5574
10.3258
10.0967
9.90139
9.75569
9.66794
9.62339
9.66834
9.58184
9.53714
9.41364
9.19092
8.88675
8.52112
8.10853
7.66494
7.19365
6.70062
6.21313
5.80085
5.65641
6.09852
7.04993
8.08936
9.02247
9.78054
10.3064
10.5897
10.5906
10.491
10.3199
10.1162
9.91122
9.7319
9.59328
9.50196
9.44644
9.46624
9.34776
9.31145
9.20815
9.0101
8.734
8.39846
8.01832
7.60495
7.16285
6.69898
6.23963
5.85383
5.72557
6.12843
6.97749
7.92061
8.78206
9.48951
9.99037
10.2617
10.276
10.2009
10.0581
9.88097
9.69855
9.53374
9.40079
9.30549
9.23938
9.23585
9.08154
9.05737
8.97659
8.80604
8.5605
8.25823
7.91279
7.53358
7.12407
6.69348
6.26552
5.90584
5.78819
6.14234
6.89239
7.74157
8.53124
9.1878
9.66109
9.91804
9.94304
9.88924
9.77224
9.62004
9.45856
9.30691
9.17809
9.07701
8.99861
8.97288
8.78068
8.77373
8.71887
8.57939
8.36849
8.10441
7.79866
7.45761
7.08946
6.70148
6.30736
5.97802
5.86762
6.16981
6.82224
7.57875
8.2942
8.89655
9.33595
9.5736
9.60395
9.56592
9.47005
9.3388
9.1946
9.05323
8.92589
8.81675
8.72428
8.67723
8.45612
8.47269
8.44951
8.34717
8.18023
7.96544
7.71281
7.42986
7.11679
6.77958
6.43886
6.15493
6.05293
6.30636
6.86411
7.52561
8.15887
8.69577
9.08631
9.29074
9.31624
9.28163
9.19509
9.07389
8.9369
8.79724
8.66399
8.54098
8.43031
8.36154
8.18856
8.24755
8.27323
8.23418
8.14367
8.01636
7.85957
7.67537
7.46243
7.2241
6.97578
6.7665
6.69144
6.90087
7.36627
7.91746
8.44211
8.87982
9.185
9.32456
9.3193
9.25923
9.15041
9.00801
8.84881
8.68311
8.51853
8.3584
8.21036
8.10615
8.75262
8.90783
9.05691
9.17259
9.26381
9.34214
9.3974
9.41563
9.39371
9.33009
9.23014
9.13569
9.10291
9.25241
9.57969
9.95498
10.2954
10.5727
10.7269
10.7502
10.6654
10.5308
10.349
10.1314
9.89334
9.64192
9.38708
9.13149
8.88603
8.69035
16.1353
16.4705
16.7949
17.1122
17.4271
17.7497
17.9685
18.0516
18.0395
17.9464
17.7764
17.6066
17.4256
17.3163
17.2584
17.2492
17.2814
17.3742
17.3918
17.3895
17.3985
17.4213
17.4203
17.3733
17.2732
17.1168
16.9135
16.6626
16.3843
16.1109
9.52119
11.0936
11.7878
11.9616
11.7186
11.1602
10.3514
9.38038
8.30478
7.27748
6.42103
5.96141
5.95632
7.87802
12.9203
20.892
28.3471
34.957
37.4444
34.9957
30.7906
26.2932
21.9591
18.1605
14.9868
12.4088
10.4282
8.82854
7.79123
7.0282
6.55449
6.75656
7.03547
7.19037
7.1533
6.94313
6.59239
6.14245
5.63685
5.16749
4.82766
4.76846
5.16436
6.94433
10.4442
14.9132
18.8638
22.1399
23.4638
22.3141
20.1545
17.6862
15.2264
12.9772
11.0406
9.42716
8.15346
7.10127
6.45536
6.03303
6.32001
6.07674
6.13377
6.22388
6.23933
6.14352
5.94241
5.65871
5.32349
5.02366
4.83514
4.90592
5.44429
7.22185
10.2023
13.6494
16.637
19.029
20.0124
19.2387
17.6806
15.8091
13.8889
12.0851
10.5084
9.14238
8.04379
7.11502
6.57445
6.24506
6.3278
5.86552
5.8105
5.8538
5.88265
5.84311
5.72328
5.53056
5.30276
5.09686
4.98559
5.1287
5.73932
7.47566
10.0564
12.9185
15.3657
17.2739
18.0559
17.4981
16.285
14.768
13.1708
11.6344
10.2616
9.05091
8.0642
7.23968
6.72492
6.40168
6.32377
5.78325
5.6645
5.68001
5.71099
5.70243
5.63266
5.50258
5.34356
5.20236
5.13825
5.32533
5.96509
7.62296
9.85151
12.2932
14.3563
15.9309
16.5654
16.1521
15.1805
13.923
12.5669
11.2335
10.0206
8.93715
8.0362
7.28624
6.77734
6.44692
6.29563
5.75973
5.60129
5.59898
5.62631
5.63284
5.59321
5.51087
5.3975
5.29968
5.26594
5.47866
6.11823
7.64116
9.59061
11.6972
13.4634
14.7887
15.3069
14.9951
14.2037
13.1495
11.9883
10.829
9.75052
8.77964
7.95475
7.26001
6.75566
6.42074
6.25784
5.76593
5.59858
5.57402
5.5935
5.60455
5.58395
5.52918
5.4485
5.37912
5.36481
5.58956
6.21016
7.58845
9.29129
11.1223
12.6508
13.7842
14.211
13.9725
13.3202
12.4307
11.4324
10.4216
9.46528
8.59517
7.83936
7.19529
6.7004
6.36483
6.22459
5.79027
5.62415
5.58528
5.59458
5.60382
5.59127
5.55241
5.49228
5.43949
5.43728
5.66268
6.23229
7.47992
8.96655
10.5751
11.9095
12.8938
13.2518
13.0671
12.5251
11.7713
10.9114
10.0296
9.1837
8.40295
7.70997
7.11222
6.63248
6.30134
6.20441
5.829
5.66928
5.62175
5.61946
5.6218
5.60958
5.57757
5.52765
5.48213
5.48586
5.69713
6.20941
7.32539
8.64721
10.0631
11.2376
12.107
12.4151
12.271
11.8179
11.1771
10.4356
9.66603
8.91894
8.21666
7.58102
7.02597
6.5664
6.24444
6.19935
5.87876
5.72923
5.67531
5.66046
5.6521
5.63459
5.60213
5.5543
5.50897
5.51304
5.6921
6.15729
7.1389
8.33038
9.59228
10.6367
11.4169
11.6907
11.5769
11.1964
10.65
10.0098
9.33781
8.6776
8.04417
7.46109
6.94608
6.51054
6.20161
6.20499
5.93528
5.79805
5.73905
5.71124
5.68984
5.66246
5.62399
5.57188
5.52123
5.517
5.66444
6.0819
6.92942
8.0295
9.16901
10.1092
10.8167
11.0691
10.978
10.6562
10.1883
9.63411
9.04634
8.46122
7.88855
7.3542
6.87744
6.46867
6.17547
6.21982
5.99462
5.87019
5.8071
5.76629
5.7304
5.69011
5.64136
5.58066
5.52217
5.50609
5.62017
5.98761
6.73691
7.75795
8.80199
9.65831
10.3037
10.5431
10.4686
10.1924
9.78833
9.30587
8.78985
8.26843
7.7499
7.26114
6.82152
6.44148
6.16544
6.24141
6.05333
5.94097
5.87442
5.8212
5.7702
5.71536
5.65352
5.58307
5.51343
5.48313
5.56557
5.895
6.58412
7.53881
8.50801
9.29427
9.88086
10.1102
10.046
9.80182
9.44694
9.02181
8.56527
8.09689
7.62668
7.18063
6.77746
6.42777
6.17412
6.26647
6.10853
6.00686
5.93702
5.87236
5.8068
5.73689
5.66216
5.58205
5.50003
5.45683
5.5213
5.83052
6.46924
7.37791
8.29637
9.0328
9.56244
9.77713
9.71257
9.4858
9.1633
8.78069
8.37027
7.94442
7.51682
7.11035
6.74284
6.42566
6.19568
6.29149
6.15782
6.06529
5.99253
5.91795
5.83972
5.7564
5.67064
5.58312
5.49909
5.45007
5.50057
5.79333
6.39917
7.27961
8.16679
8.87263
9.3594
9.55834
9.484
9.25518
8.94381
8.58588
8.20588
7.81088
7.41875
7.04789
6.71427
6.42978
6.22197
6.31356
6.20004
6.11568
6.04113
5.95906
5.87106
5.7782
5.68552
5.5952
5.51277
5.46402
5.50062
5.78066
6.37327
7.24745
8.11915
8.80919
9.26519
9.45077
9.37325
9.13046
8.8098
8.45143
8.07913
7.70004
7.33322
6.99186
6.68836
6.43345
6.2462
6.3322
6.23703
6.16077
6.08663
6.00089
5.90849
5.81162
5.71771
5.63049
5.55262
5.50547
5.53959
5.81659
6.40954
7.28525
8.15348
8.83907
9.27816
9.45048
9.36199
9.09513
8.75563
8.38447
8.00295
7.6243
7.26681
6.94457
6.66396
6.4327
6.26417
6.35117
6.27475
6.20964
6.14035
6.05746
5.96784
5.87395
5.78341
5.70027
5.62705
5.58304
5.62075
5.90477
6.51096
7.3966
8.27022
8.9593
9.38476
9.54976
9.46161
9.16965
8.78747
8.37733
7.97946
7.59459
7.23695
6.91728
6.64585
6.429
6.27497
6.38441
6.3339
6.28454
6.22494
6.14923
6.06489
5.97667
5.89206
5.81479
5.74738
5.7076
5.75419
6.05418
6.68331
7.5857
8.47062
9.16876
9.58512
9.74763
9.65876
9.34577
8.9318
8.48633
8.04603
7.63311
7.26155
6.93438
6.66084
6.44334
6.29016
6.46635
6.43594
6.4009
6.35175
6.28578
6.21051
6.13162
6.05613
5.98742
5.92808
5.89437
5.95379
6.27765
6.93602
7.85913
8.7584
9.46846
9.87938
10.0429
9.95286
9.62135
9.17617
8.69375
8.21778
7.77385
7.37378
7.02637
6.7378
6.51125
6.35149
6.60505
6.58984
6.56922
6.53338
6.48154
6.42034
6.35526
6.29296
6.23697
6.1891
6.16489
6.2406
6.59334
7.28426
8.22925
9.14282
9.86442
10.2723
10.4392
10.3489
10.0013
9.52524
9.00493
8.48926
8.00825
7.57601
7.20166
6.88993
6.64229
6.46951
6.81405
6.8109
6.8068
6.78911
6.75713
6.71613
6.67149
6.62908
6.59225
6.56064
6.55259
6.6491
7.03167
7.75622
8.72164
9.64624
10.3744
10.7799
10.9504
10.8601
10.499
9.99321
9.43377
8.87521
8.35161
7.88013
7.47054
7.12721
6.8527
6.66148
7.11403
7.12192
7.13979
7.1468
7.14307
7.13259
7.11961
7.1087
7.10249
7.09652
7.11712
7.24075
7.65171
8.40923
9.39234
10.3213
11.0441
11.4446
11.6142
11.5206
11.1458
10.6096
10.0089
9.40369
8.83229
8.3136
7.86013
7.47611
7.1664
6.95005
7.53629
7.55785
7.60697
7.65277
7.69398
7.7326
7.77237
7.81557
7.86301
7.9049
7.97494
8.13918
8.57788
9.36722
10.367
11.2902
11.9863
12.3696
12.5249
12.4141
12.0177
11.4434
10.7936
10.1328
9.50363
8.92587
8.4155
7.97749
7.62025
7.36846
8.14146
8.18785
8.28932
8.40138
8.52105
8.64775
8.78458
8.92948
9.07744
9.2165
9.37811
9.61401
10.0939
10.9084
11.9323
12.8339
13.4666
13.8002
13.906
13.7443
13.3015
12.6664
11.943
11.1996
10.4866
9.82411
9.23114
8.71335
8.2851
7.97937
9.07454
9.17829
9.3815
9.62141
9.89384
10.1947
10.5265
10.8764
11.2273
11.5705
11.9143
12.291
12.8502
13.6894
14.7411
15.5778
16.0834
16.2922
16.2744
15.9904
15.4419
14.6984
13.8464
12.954
12.0879
11.2734
10.5361
9.88043
9.33034
8.93152
10.7886
11.0359
11.455
11.9661
12.5597
13.2279
13.9691
14.7365
15.513
16.268
16.9645
17.6024
18.2961
19.1473
20.1362
20.773
21.0066
20.9699
20.6933
20.1889
19.4481
18.5156
17.4531
16.3088
15.1512
14.0348
13.0039
12.0678
11.2727
10.684
14.664
15.282
16.1847
17.2747
18.5345
19.9418
21.4735
23.0189
24.5401
25.9573
27.1355
28.0397
28.7347
29.3216
29.7917
29.782
29.386
28.8602
28.1639
27.4364
26.6345
25.6785
24.4963
23.1117
21.6041
20.0319
18.4634
16.966
15.6547
14.6392
24.5976
26.0182
27.7805
29.7542
31.9325
34.2542
36.6172
38.8727
40.8864
42.4083
43.1481
43.2607
42.8239
41.903
40.4666
38.613
36.8585
35.4432
34.2051
33.4854
33.3242
33.5198
33.4883
33.145
32.4512
31.3665
29.9291
28.2059
26.3379
24.6687
37.3879
40.0692
42.5791
44.6944
46.479
48.0901
49.3223
50.078
50.3016
49.6762
48.1227
46.0822
43.6153
40.8151
37.5793
34.6251
32.4062
30.7292
29.4106
28.8144
28.9463
29.7421
30.9642
32.3805
33.808
35.1132
36.1721
36.8633
36.9026
36.8807
13.9052
16.1219
17.2148
17.6268
17.4317
16.7572
15.6982
14.4047
12.9699
11.6802
10.7125
10.9338
13.4582
19.682
29.1465
41.4951
52.675
62.8562
65.9208
60.7178
53.0724
45.1692
37.7077
31.1949
25.7415
21.2863
17.7711
14.8387
12.6133
10.7913
8.224
8.41545
8.90146
9.28083
9.39701
9.27148
8.94584
8.48408
7.94723
7.46551
7.19553
7.65482
9.59544
13.4147
18.4756
24.177
29.0282
32.9446
33.9494
31.8072
28.5687
25.023
21.5789
18.4356
15.7062
13.3911
11.519
9.9328
8.85759
7.92056
7.51215
7.16
7.30554
7.54446
7.68971
7.69868
7.57235
7.34002
7.04846
6.80099
6.749
7.33235
9.10494
12.2399
16.1026
20.1896
23.657
26.2601
26.8155
25.3519
23.1242
20.609
18.1113
15.7726
13.693
11.8833
10.3973
9.12865
8.26794
7.56707
7.20306
6.65636
6.66208
6.81534
6.95587
7.01858
6.98985
6.87664
6.71575
6.59958
6.67347
7.31387
8.96273
11.6692
14.8466
18.0872
20.8276
22.7677
23.1236
22.0229
20.3083
18.326
16.3191
14.4053
12.6741
11.1404
9.86408
8.75892
7.97835
7.37261
6.98429
6.37434
6.31769
6.42414
6.55392
6.64083
6.66556
6.62609
6.54902
6.51879
6.66807
7.34074
8.85895
11.2247
13.9012
16.5599
18.7956
20.2997
20.5364
19.6787
18.3033
16.6797
15.0074
13.3911
11.9083
10.5772
9.44627
8.4648
7.73135
7.17905
6.79165
6.19615
6.11979
6.19897
6.31603
6.41163
6.46465
6.4711
6.45046
6.47686
6.67694
7.35476
8.74708
10.8169
13.0954
15.3113
17.1594
18.35
18.5056
17.8238
16.6954
15.3382
13.9185
12.5312
11.2435
10.0771
9.06767
8.18695
7.49462
6.9831
6.63186
6.10814
6.01633
6.07561
6.17829
6.27239
6.33824
6.37058
6.38623
6.45053
6.68195
7.3484
8.62141
10.4295
12.3816
14.2471
15.7867
16.7448
16.8432
16.2942
15.356
14.2077
12.9896
11.7876
10.6608
9.63371
8.72733
7.93016
7.27936
6.80469
6.51758
6.08585
5.97994
6.02182
6.1087
6.19418
6.26187
6.30633
6.34221
6.42899
6.68015
7.32666
8.48674
10.0631
11.7447
13.3291
14.6209
15.4037
15.4637
15.0176
14.2313
13.2528
12.2009
11.1533
10.1624
9.25365
8.43356
7.70739
7.09755
6.65762
6.4504
6.09753
5.98926
6.00853
6.0827
6.15955
6.22102
6.26755
6.31208
6.41143
6.67388
7.2931
8.34455
9.72344
11.1807
12.5373
13.6303
14.282
14.3163
13.9516
13.2894
12.4517
11.5396
10.6228
9.74757
8.93574
8.19066
7.52468
6.95687
6.5478
6.4245
6.1328
6.02939
6.03419
6.0876
6.14897
6.2045
6.24728
6.29307
6.39768
6.66436
7.25198
8.20217
9.41461
10.689
11.8629
12.7951
13.3479
13.3662
13.0647
12.5053
11.7853
10.9916
10.1861
9.41086
8.6783
7.99624
7.38446
6.858
6.47673
6.42662
6.18532
6.08966
6.08289
6.11809
6.16184
6.20236
6.2382
6.28113
6.38741
6.65315
7.20763
8.06701
9.14203
10.2718
11.3015
12.1048
12.579
12.5877
12.3332
11.8577
11.2355
10.5415
9.83024
9.1405
8.47253
7.84742
7.28495
6.79826
6.44238
6.44703
6.24777
6.15987
6.14343
6.15989
6.18648
6.21317
6.23809
6.27516
6.38098
6.64244
7.16494
7.94791
8.91398
9.93524
10.8546
11.5555
11.9625
11.9638
11.7411
11.3291
10.787
10.1747
9.54333
8.92089
8.31113
7.73851
7.22204
6.77231
6.44236
6.48164
6.31403
6.23185
6.20655
6.20605
6.21659
6.23017
6.24619
6.27818
6.38177
6.63546
7.13011
7.85639
8.74329
9.69289
10.5331
11.1537
11.496
11.487
11.2803
10.9102
10.4276
9.88045
9.31417
8.74317
8.18618
7.6625
7.18893
6.77841
6.47646
6.52377
6.37833
6.29922
6.26568
6.25207
6.24945
6.25252
6.26212
6.29389
6.39833
6.64454
7.11184
7.80177
8.64045
9.5403
10.3229
10.8851
11.1786
11.1627
10.9536
10.6006
10.1536
9.65269
9.1306
8.60102
8.08986
7.61029
7.17682
6.80662
6.52707
6.56652
6.43496
6.35837
6.31879
6.29633
6.28533
6.28279
6.29067
6.32785
6.44151
6.68966
7.12962
7.78357
8.59977
9.47439
10.2161
10.7378
10.9901
10.9743
10.7626
10.4121
9.97305
9.49049
8.98883
8.49058
8.01521
7.57304
7.17806
6.84048
6.57985
6.60459
6.48264
6.40956
6.36787
6.34245
6.32942
6.32872
6.34263
6.38893
6.5118
6.76954
7.20417
7.83763
8.63406
9.4948
10.2116
10.7036
10.9211
10.9122
10.6921
10.3323
9.8816
9.39141
8.8933
8.41201
7.95915
7.54468
7.1803
6.86874
6.62471
6.63719
6.52528
6.4586
6.42065
6.4008
6.39384
6.40001
6.42463
6.48444
6.6188
6.88896
7.32631
7.95644
8.74704
9.6037
10.3028
10.7753
10.9662
10.9667
10.7371
10.3433
9.86136
9.35574
8.85112
8.3714
7.92569
7.5249
7.17874
6.88615
6.65654
6.67026
6.57358
6.51976
6.49293
6.48317
6.4875
6.50718
6.54805
6.62594
6.7761
7.05941
7.50787
8.14664
8.94408
9.80764
10.4966
10.9538
11.1259
11.1336
10.9023
10.4955
9.991
9.44078
8.89362
8.38858
7.93108
7.52695
7.18241
6.89647
6.67679
6.72034
6.64524
6.60775
6.59644
6.60269
6.62579
6.66563
6.72871
6.82984
7.00064
7.29952
7.76597
8.42458
9.23971
10.1196
10.8029
11.2468
11.4068
11.419
11.1866
10.7668
10.2363
9.65424
9.06859
8.51184
8.01162
7.58066
7.21817
6.92388
6.70365
6.80913
6.75642
6.73887
6.74904
6.78
6.82917
6.89675
6.98887
7.11975
7.31734
7.63758
8.12525
8.81556
9.65812
10.5627
11.2417
11.6725
11.8234
11.8385
11.605
11.17
10.6102
9.9906
9.35807
8.7513
8.20175
7.71881
7.31622
6.99535
6.76448
6.96152
6.92936
6.93653
6.97806
7.0424
7.12667
7.23133
7.36152
7.53123
7.76429
8.11431
8.62763
9.36033
10.24
11.1768
11.8488
12.2633
12.4039
12.4199
12.1842
11.7332
11.1402
10.4762
9.78921
9.12075
8.50772
7.96641
7.51266
7.15036
6.88904
7.2083
7.1952
7.23792
7.3207
7.42996
7.56152
7.7164
7.89842
8.1208
8.40297
8.79545
9.34459
10.126
11.0545
12.0303
12.6868
13.0771
13.2008
13.2122
12.9706
12.502
11.8724
11.1576
10.4076
9.6651
8.9717
8.35516
7.83158
7.4107
7.10947
7.59727
7.60571
7.69593
7.83429
8.00579
8.20364
8.42954
8.68615
8.98409
9.33825
9.79406
10.3967
11.2339
12.2232
13.2428
13.8666
14.2197
14.3095
14.3035
14.0471
13.5556
12.8837
12.1105
11.2873
10.4598
9.66594
8.94958
8.33322
7.83393
7.47866
8.20418
8.24482
8.39973
8.61729
8.87977
9.17661
9.50986
9.88047
10.2938
10.759
11.3142
11.9998
12.9103
13.9615
15.0296
15.5922
15.8793
15.904
15.8552
15.566
15.0398
14.3132
13.4694
12.5568
11.6264
10.7106
9.86252
9.11824
8.50869
8.07507
9.17126
9.2655
9.5191
9.85965
10.2649
10.7193
11.2254
11.7805
12.3798
13.024
13.7387
14.5541
15.5643
16.6647
17.7694
18.2218
18.3841
18.2791
18.1079
17.7645
17.2172
16.421
15.4866
14.4532
13.39
12.3196
11.2986
10.3722
9.59929
9.04358
10.8005
10.9985
11.4196
11.9645
12.6094
13.3285
14.125
14.9875
15.8919
16.8255
17.7888
18.7925
19.9136
21.011
22.0631
22.2848
22.0434
21.5746
21.1742
20.7438
20.2465
19.5728
18.6181
17.4382
16.2002
14.9151
13.6666
12.4801
11.4541
10.6951
13.8329
14.2413
14.9569
15.8502
16.9014
18.0643
19.3384
20.6887
22.0592
23.407
24.6828
25.864
26.9821
27.8432
28.4861
27.7411
26.6825
25.6773
24.9218
24.388
24.0267
23.6594
23.0946
22.1967
20.8691
19.3537
17.8196
16.2762
14.88
13.7852
20.0255
20.8388
22.0349
23.4643
25.1213
26.9137
28.8171
30.7482
32.6031
34.2699
35.5998
36.5372
37.0259
36.6751
35.5439
33.1666
31.0599
29.3841
28.2057
27.6014
27.5189
27.714
27.8792
27.8475
27.4634
26.5673
25.1053
23.3411
21.5894
20.079
31.2465
32.9137
34.8191
36.8452
38.9931
41.1575
43.2555
45.1334
46.647
47.56
47.622
46.8445
45.0134
42.224
38.8593
34.8611
31.8405
29.6418
28.1869
27.595
27.8105
28.6707
29.7856
30.9614
31.9976
32.7334
33.1056
33.0502
32.2236
31.1745
36.4974
39.6258
42.6215
45.1721
47.1946
48.8169
49.9313
50.4306
50.2336
49.154
47.1556
44.4617
41.065
37.0716
32.747
28.5483
25.6061
23.5541
22.1856
21.64
21.8596
22.7634
24.1344
25.8127
27.6539
29.525
31.3083
32.8758
34.1286
35.4967
18.0507
20.7829
22.312
23.1142
23.1413
22.5138
21.351
19.8784
18.2116
16.7279
15.5812
17.0429
22.7394
33.5589
48.2317
66.0997
81.8254
96.7537
99.7193
90.0782
77.5109
65.3615
54.19
44.5592
36.5554
30.0593
24.912
20.5983
17.1363
14.1156
9.67556
9.82753
10.4938
11.1043
11.3915
11.3755
11.105
10.6616
10.1201
9.62773
9.39111
10.5286
13.9146
19.4436
26.213
33.6271
39.9806
45.178
45.6562
41.8901
37.0009
32.0535
27.4318
23.2904
19.7477
16.7721
14.3709
12.3342
10.9153
9.48251
8.48847
8.07716
8.31263
8.6821
8.9369
9.02692
8.95936
8.76283
8.49458
8.27593
8.32556
9.44957
12.2054
16.4085
21.3461
26.556
31.1098
34.374
34.4118
31.8975
28.5913
25.1486
21.8874
18.9198
16.328
14.0951
12.2556
10.6754
9.57485
8.55908
7.91347
7.35288
7.43097
7.67683
7.8957
8.01982
8.03998
7.96233
7.83267
7.7704
7.98435
9.12167
11.5058
14.9947
18.9902
23.1083
26.7072
29.0438
28.9557
27.0505
24.4867
21.7604
19.1443
16.7388
14.6105
12.7485
11.1896
9.84511
8.8692
8.06441
7.51799
6.94402
6.96356
7.14442
7.3353
7.47009
7.53265
7.52496
7.48451
7.52706
7.86108
8.98451
11.1043
14.0888
17.4432
20.825
23.742
25.4848
25.3539
23.8418
21.7476
19.4722
17.2635
15.2186
13.395
11.7877
10.4264
9.25578
8.36283
7.68217
7.22219
6.70041
6.70129
6.84556
7.01346
7.1473
7.23036
7.264
7.28487
7.39948
7.81014
8.91296
10.8362
13.4281
16.2954
19.1157
21.4964
22.8182
22.6713
21.4429
19.6872
17.7382
15.8226
14.0382
12.4392
11.027
9.8228
8.78984
7.97206
7.37588
7.01108
6.56863
6.5683
6.68968
6.83684
6.96237
7.05261
7.11041
7.17234
7.34162
7.79675
8.87792
10.6469
12.923
15.4029
17.7733
19.7188
20.73
20.576
19.5637
18.071
16.3778
14.6902
13.1083
11.6861
10.4305
9.35147
8.42053
7.67212
7.14447
6.88657
6.55456
6.52569
6.63096
6.75889
6.87054
6.95931
7.02984
7.11877
7.32094
7.81757
8.86794
10.5092
12.5338
14.699
16.7022
18.2922
19.0685
18.9119
18.0686
16.7895
15.3066
13.8058
12.389
11.111
9.97815
8.99039
8.14412
7.45707
6.98513
6.84858
6.5883
6.54571
6.62386
6.73631
6.84018
6.92655
7.00208
7.10308
7.33711
7.87405
8.88796
10.4168
12.2382
14.1457
15.8476
17.1479
17.744
17.5852
16.8762
15.7745
14.4696
13.1266
11.848
10.6866
9.6409
8.72936
7.95236
7.32044
6.89022
6.8635
6.65636
6.61567
6.67948
6.76999
6.85617
6.93419
7.01229
7.12995
7.39723
7.95989
8.9416
10.3629
12.0252
13.7202
15.1744
16.2398
16.6943
16.5322
15.9284
14.9756
13.8227
12.6154
11.4545
10.3734
9.40246
8.55593
7.83662
7.25286
6.85232
6.91772
6.75592
6.71759
6.76439
6.83429
6.90574
6.9762
7.05662
7.18951
7.48786
8.07031
9.0231
10.3405
11.8872
13.4107
14.6653
15.5394
15.8755
15.7072
15.1813
14.3531
13.3296
12.2407
11.1614
10.1548
9.24943
8.4582
7.78608
7.24559
6.88426
7.00431
6.87489
6.83574
6.86406
6.91519
6.97399
7.0391
7.12392
7.27243
7.59871
8.20152
9.13183
10.3668
11.8149
13.2163
14.3144
15.0332
15.2592
15.0794
14.6057
13.8757
12.9607
11.9593
10.9537
10.015
9.16834
8.4228
7.8035
7.31392
6.97971
7.11398
7.00146
6.95718
6.96743
7.00307
7.05315
7.11688
7.20991
7.37656
7.72942
8.35046
9.27159
10.4592
11.8013
13.1169
14.0837
14.6831
14.8309
14.6315
14.184
13.5255
12.6919
11.7547
10.8167
9.93893
9.14232
8.45559
7.88241
7.42505
7.10736
7.23404
7.1238
7.07189
7.06737
7.09209
7.13904
7.20703
7.31382
7.50308
7.8833
8.52469
9.4417
10.6009
11.8751
13.092
13.9455
14.4427
14.5261
14.3244
13.9093
13.2914
12.5026
11.6174
10.7373
9.90906
9.17247
8.53108
7.98995
7.55454
7.24306
7.34719
7.23341
7.17434
7.16094
7.18105
7.23227
7.31192
7.44012
7.65892
8.06834
8.72964
9.64487
10.7807
11.9988
13.1368
13.8869
14.2943
14.3231
14.1219
13.73
13.1527
12.3926
11.5443
10.704
9.92653
9.23103
8.6203
8.10276
7.68349
7.37376
7.44437
7.32758
7.26525
7.24989
7.2747
7.33997
7.44069
7.59532
7.84617
8.28508
8.96808
9.88461
11.0028
12.1742
13.2475
13.9046
14.2308
14.2122
14.0073
13.6348
13.0782
12.3462
11.5387
10.742
9.98474
9.30548
8.70903
8.20624
7.79813
7.48971
7.52844
7.41097
7.35196
7.34423
7.38575
7.47194
7.599
7.78511
8.07144
8.54047
9.24708
10.1685
11.2754
12.4095
13.4307
14.0042
14.2553
14.1893
13.9742
13.603
13.0665
12.3882
11.6228
10.8447
10.0951
9.40734
8.79998
8.29722
7.89221
7.58438
7.60831
7.49773
7.45039
7.4585
7.52508
7.63934
7.79913
8.02204
8.34733
8.84751
9.5799
10.5107
11.6136
12.7206
13.7024
14.2
14.3766
14.2612
14.0399
13.6877
13.1917
12.5525
11.8053
11.0184
10.2548
9.54641
8.91734
8.39087
7.97195
7.66021
7.70239
7.60616
7.57526
7.61072
7.71046
7.86063
8.06027
8.32589
8.69444
9.22844
9.98854
10.9348
12.0426
13.1339
14.0896
14.5124
14.6117
14.4404
14.2103
13.8724
13.4068
12.8036
12.0817
11.2901
10.4993
9.74729
9.07663
8.51242
8.0649
7.73836
7.83544
7.75749
7.75043
7.8253
7.9676
8.16275
8.4109
8.72669
9.14482
9.71976
10.5074
11.4779
12.6022
13.6903
14.6337
14.9744
14.985
14.7468
14.502
14.1758
13.738
13.1677
12.4685
11.6672
10.8472
10.0543
9.32408
8.69695
8.20066
7.84742
8.03843
7.98122
8.0123
8.13803
8.33424
8.58575
8.89349
9.27033
9.74837
10.3743
11.1969
12.198
13.354
14.4523
15.397
15.6354
15.5274
15.2097
14.9415
14.6236
14.2147
13.6792
13.0049
12.2034
11.3388
10.4887
9.69355
8.99568
8.43223
8.02707
8.35863
8.32514
8.41203
8.60253
8.86764
9.1909
9.57423
10.0291
10.584
11.277
12.1506
13.1892
14.3925
15.5149
16.4721
16.5536
16.2855
15.864
15.5588
15.2457
14.8707
14.3792
13.7409
12.9505
12.0408
11.1186
10.2402
9.44877
8.79651
8.32058
8.87104
8.86676
9.02905
9.30378
9.65908
10.077
10.5609
11.1209
11.7794
12.5654
13.5138
14.6095
15.8649
17.0205
17.9572
17.7998
17.312
16.7474
16.3835
16.0706
15.7401
15.312
14.7345
13.9785
13.0588
12.0411
11.055
10.1486
9.38091
8.81457
9.69391
9.73856
9.99796
10.3849
10.8627
11.4113
12.0355
12.7431
13.5468
14.4641
15.5216
16.6961
18.0098
19.1789
19.9862
19.4447
18.6499
17.8871
17.433
17.1139
16.8454
16.5151
16.0435
15.3694
14.4853
13.4119
12.2899
11.235
10.3193
9.63118
11.0339
11.1633
11.5586
12.1015
12.753
13.4877
14.3132
15.2321
16.2407
17.3387
18.5431
19.8069
21.1557
22.1959
22.6654
21.5131
20.2861
19.2628
18.6765
18.3438
18.1654
17.988
17.6971
17.1921
16.4315
15.4185
14.1882
12.9456
11.8325
10.9793
13.2667
13.5495
14.1511
14.9214
15.8238
16.8242
17.9344
19.1449
20.4232
21.7432
23.1012
24.4091
25.6638
26.1454
25.9632
23.8775
22.0586
20.7142
19.9587
19.6062
19.5539
19.6101
19.6139
19.4205
18.9462
18.1514
17.0571
15.6855
14.3278
13.2399
17.1127
17.6568
18.5598
19.65
20.8934
22.2448
23.7136
25.2634
26.8184
28.3059
29.6707
30.7635
31.2024
30.6731
29.3724
26.0276
23.5263
21.8321
20.9062
20.5328
20.6228
20.9897
21.4181
21.732
21.7951
21.5057
20.8432
19.8238
18.4861
17.1336
23.4671
24.4904
25.8003
27.2699
28.8743
30.5526
32.2935
34.0075
35.5657
36.809
37.4829
37.3678
36.4442
34.3575
31.4595
26.8846
23.8233
21.8625
20.8276
20.4492
20.6535
21.3248
22.2208
23.1749
24.0211
24.5913
24.8125
24.6606
24.1164
23.4171
29.6466
31.7026
33.8601
35.97
37.9506
39.7273
41.257
42.423
43.112
43.1058
42.3472
40.6959
38.0522
34.3532
30.1314
25.0575
21.8862
19.9751
18.9268
18.5492
18.7757
19.5487
20.6816
22.0575
23.5545
25.0463
26.4041
27.543
28.3283
28.9711
28.071
30.7718
33.4989
35.919
37.9643
39.5981
40.7166
41.2435
41.1199
40.1502
38.347
35.7875
32.3913
28.3482
24.1634
20.0021
17.4412
15.9558
15.0848
14.7256
14.8144
15.3261
16.1756
17.3088
18.6767
20.2133
21.8445
23.4922
25.1242
26.9534
21.8588
25.541
27.218
28.4417
28.7923
28.3131
27.1275
25.5252
23.6128
21.773
20.1143
22.6817
31.6552
47.6307
68.6748
95.5702
118.922
139.076
140.58
125.544
106.631
88.4675
72.2008
58.5156
47.4473
38.6635
31.7454
26.0116
21.318
17.0392
11.0459
11.3788
12.0888
12.8675
13.3035
13.382
13.1541
12.7003
12.1081
11.5178
11.1866
12.86
17.5807
24.8939
33.8344
44.3286
53.6748
60.5631
60.0901
54.2734
47.0756
40.0192
33.6573
28.1657
23.6434
19.9377
16.986
14.5303
12.8214
10.9339
9.47759
9.13351
9.42792
9.89184
10.22
10.3549
10.3036
10.0896
9.78172
9.51615
9.59328
11.1503
14.8397
20.275
26.7813
34.1337
40.7985
45.1179
44.401
40.3943
35.4242
30.5173
26.0972
22.2477
18.9981
16.2644
14.0445
12.1615
10.8436
9.55566
8.74773
8.21196
8.35632
8.67418
8.93786
9.08338