/*--------------------------------*- C++ -*----------------------------------*\
| =========                 |                                                 |
| \\      /  F ield         | OpenFOAM: The Open Source CFD Toolbox           |
|  \\    /   O peration     | Version:  5.0                                   |
|   \\  /    A nd           | Web:      www.OpenFOAM.org                      |
|    \\/     M anipulation  |                                                 |
\*---------------------------------------------------------------------------*/
FoamFile
{
    version     2.0;
    format      ascii;
    class       volScalarField;
    location    "350/air";
    object      k;
}
// * * * * * * * * * * * * * * * * * * * * * * * * * * * * * * * * * * * * * //

dimensions      [0 2 -2 0 0 0 0];

internalField   nonuniform List<scalar> 
243000
(
0.0906637
0.0975644
0.099629
0.0989023
0.0961842
0.0920404
0.0868384
0.08093
0.074519
0.0680371
0.0619119
0.0565005
0.0504641
0.0440308
0.0521286
0.100358
0.131922
0.154443
0.163354
0.158251
0.146257
0.132906
0.118911
0.105634
0.0936664
0.0832166
0.0749584
0.0685463
0.0671411
0.067949
0.163203
0.167847
0.165863
0.16089
0.154456
0.146976
0.13865
0.129781
0.120487
0.111331
0.102649
0.0951301
0.0867383
0.079073
0.104202
0.182349
0.232052
0.268615
0.28398
0.275743
0.255971
0.234188
0.211236
0.189775
0.170452
0.153744
0.140588
0.130349
0.126687
0.126837
0.2035
0.207948
0.204606
0.197964
0.18979
0.180555
0.170464
0.159864
0.148878
0.138189
0.128119
0.119338
0.109309
0.10131
0.1387
0.228062
0.285105
0.326746
0.345398
0.337563
0.315507
0.290628
0.26428
0.239478
0.217069
0.197704
0.182374
0.170609
0.165985
0.166903
0.233838
0.237981
0.234087
0.226798
0.217813
0.207633
0.196493
0.184779
0.172644
0.160868
0.149718
0.139812
0.128329
0.120451
0.167723
0.261878
0.322445
0.366145
0.386589
0.380195
0.357591
0.33149
0.303678
0.277306
0.253394
0.232727
0.216253
0.203808
0.198542
0.200249
0.257824
0.261498
0.257418
0.249961
0.240664
0.230007
0.218251
0.205821
0.192909
0.18033
0.168275
0.157282
0.14447
0.137045
0.191949
0.287025
0.348618
0.392797
0.413999
0.409528
0.387407
0.361274
0.333218
0.306418
0.282031
0.260937
0.244039
0.231446
0.225832
0.22816
0.277408
0.28058
0.276478
0.269067
0.259699
0.248816
0.236698
0.2238
0.210345
0.197139
0.184269
0.172184
0.158135
0.151408
0.211877
0.305496
0.366525
0.410335
0.431654
0.429243
0.408257
0.382863
0.355368
0.328901
0.30473
0.283806
0.266981
0.254602
0.248896
0.251656
0.293823
0.296509
0.292429
0.285146
0.275804
0.264812
0.252469
0.239252
0.225393
0.211654
0.198008
0.184806
0.169579
0.163733
0.227943
0.318682
0.378189
0.421072
0.442258
0.441832
0.422395
0.398263
0.371873
0.346264
0.322791
0.302451
0.286067
0.274153
0.268565
0.271612
0.307868
0.310093
0.306031
0.298867
0.289565
0.278501
0.266
0.25254
0.238354
0.224122
0.209703
0.195339
0.178976
0.174152
0.240542
0.327603
0.385007
0.426557
0.447658
0.449025
0.431445
0.408918
0.383993
0.359616
0.337179
0.317731
0.302065
0.290795
0.285495
0.288734
0.320055
0.321838
0.317754
0.310662
0.301366
0.290227
0.277586
0.263919
0.249435
0.234719
0.219501
0.203945
0.186422
0.18279
0.250044
0.333023
0.387916
0.428224
0.449102
0.452073
0.436653
0.415961
0.392703
0.369772
0.348614
0.330287
0.31555
0.305065
0.300186
0.303564
0.330705
0.332042
0.327881
0.320794
0.311454
0.300211
0.287426
0.273558
0.25878
0.243565
0.227518
0.21071
0.19204
0.190012
0.256777
0.335497
0.38824
0.427082
0.44749
0.451726
0.438647
0.420062
0.398716
0.377396
0.357617
0.340578
0.326932
0.317343
0.312988
0.316473
0.339985
0.340854
0.336557
0.329411
0.319973
0.308592
0.295646
0.28157
0.266488
0.250757
0.233821
0.215684
0.196136
0.197145
0.261198
0.335697
0.385952
0.423271
0.443429
0.448859
0.437766
0.421495
0.402294
0.382803
0.364596
0.348906
0.336472
0.327865
0.324115
0.32769
0.347936
0.348308
0.343831
0.336576
0.32699
0.31544
0.302314
0.288019
0.272626
0.256329
0.238403
0.21896
0.200069
0.20403
0.264636
0.333729
0.3816
0.417455
0.437362
0.443875
0.434907
0.420552
0.403677
0.38619
0.369724
0.355455
0.344311
0.336751
0.333661
0.33731
0.354507
0.354366
0.349685
0.342282
0.332491
0.320743
0.307412
0.292874
0.277129
0.26021
0.241318
0.220974
0.204153
0.210619
0.267739
0.33056
0.37569
0.40997
0.429606
0.437108
0.430103
0.417773
0.402933
0.387653
0.373057
0.360373
0.350499
0.344024
0.34162
0.345325
0.359573
0.358935
0.354028
0.346426
0.336443
0.32451
0.310992
0.296222
0.280126
0.262625
0.242979
0.223233
0.208322
0.216865
0.270506
0.327816
0.369702
0.401338
0.420533
0.428794
0.42357
0.413271
0.400395
0.387092
0.374575
0.363592
0.355036
0.349642
0.347925
0.351667
0.362977
0.361869
0.356745
0.348983
0.338837
0.32675
0.313077
0.298108
0.281691
0.26377
0.24436
0.225705
0.212505
0.222723
0.27292
0.325341
0.364425
0.393784
0.411718
0.419591
0.41564
0.40716
0.3962
0.384749
0.374077
0.36495
0.357921
0.35354
0.352481
0.356234
0.364553
0.363049
0.3578
0.349936
0.339689
0.327505
0.313727
0.298625
0.282018
0.264424
0.245924
0.228286
0.216631
0.228155
0.274959
0.323023
0.359615
0.387004
0.403866
0.41148
0.408225
0.400627
0.390664
0.380837
0.371803
0.36425
0.358827
0.355624
0.355171
0.358913
0.36421
0.362433
0.357158
0.349262
0.338974
0.326763
0.312954
0.298035
0.282119
0.265233
0.247557
0.230877
0.220626
0.233109
0.276602
0.320783
0.355068
0.380759
0.3967
0.40414
0.401507
0.394787
0.38582
0.376857
0.368478
0.361822
0.357705
0.355645
0.355804
0.359675
0.361816
0.359816
0.354638
0.34683
0.336758
0.325064
0.311853
0.297574
0.282297
0.266073
0.249171
0.233409
0.224432
0.237545
0.277835
0.31851
0.350635
0.374852
0.389989
0.397292
0.39522
0.389358
0.381387
0.373222
0.365493
0.359302
0.35527
0.353632
0.35422
0.358254
0.357621
0.356017
0.351418
0.344158
0.334622
0.323429
0.310789
0.297117
0.282446
0.266859
0.250701
0.235827
0.228005
0.241428
0.278615
0.316102
0.346222
0.369097
0.383542
0.390716
0.389149
0.384099
0.377069
0.369675
0.362584
0.356844
0.352952
0.351161
0.351172
0.354682
0.353684
0.35231
0.348177
0.341416
0.332398
0.321714
0.309641
0.296564
0.28249
0.267526
0.252101
0.238091
0.231303
0.244731
0.278849
0.313462
0.341714
0.363335
0.377185
0.384229
0.383116
0.378826
0.372665
0.366003
0.359532
0.354212
0.350492
0.348604
0.348188
0.350726
0.349662
0.348423
0.344707
0.338422
0.32995
0.319803
0.30831
0.295828
0.282372
0.268031
0.253336
0.240165
0.234292
0.247431
0.278594
0.31051
0.336995
0.357435
0.370764
0.377668
0.376966
0.373388
0.368023
0.362049
0.356178
0.351255
0.347695
0.345734
0.344987
0.346752
0.345303
0.344166
0.340851
0.335051
0.327167
0.317596
0.306712
0.294853
0.28204
0.268347
0.254387
0.242031
0.236942
0.24952
0.277834
0.30717
0.331968
0.351278
0.364131
0.370883
0.370558
0.367644
0.363016
0.35769
0.352383
0.347834
0.344434
0.342384
0.341356
0.342469
0.340412
0.339396
0.336506
0.331219
0.323914
0.315008
0.304792
0.293604
0.281469
0.268468
0.255252
0.243684
0.239236
0.25101
0.276517
0.303388
0.32655
0.344773
0.35716
0.363744
0.363762
0.361466
0.357516
0.3528
0.348022
0.343824
0.340572
0.338427
0.337131
0.337651
0.334823
0.334001
0.331573
0.326842
0.320172
0.311958
0.30251
0.292055
0.280651
0.268412
0.255967
0.245159
0.241195
0.251907
0.274673
0.29916
0.320706
0.337868
0.349779
0.356154
0.356484
0.354736
0.351411
0.347279
0.342998
0.339116
0.335975
0.333722
0.332165
0.332126
0.32842
0.327884
0.325977
0.321876
0.315904
0.308462
0.299836
0.290213
0.279628
0.268257
0.25667
0.246611
0.242978
0.252368
0.272493
0.294648
0.31456
0.330644
0.342017
0.348125
0.348708
0.347441
0.344693
0.341112
0.337292
0.333694
0.330628
0.32822
0.326354
0.325775
0.321119
0.320997
0.319702
0.316322
0.311154
0.304612
0.296939
0.288253
0.278718
0.26847
0.257815
0.248629
0.245243
0.253222
0.270714
0.290532
0.308713
0.323611
0.334282
0.339998
0.340714
0.339806
0.337531
0.334411
0.33097
0.327586
0.324529
0.321904
0.31968
0.318571
0.313161
0.313614
0.313085
0.310589
0.30647
0.301121
0.294759
0.287542
0.279442
0.270566
0.261408
0.253552
0.250468
0.257078
0.271937
0.289248
0.305393
0.318753
0.328313
0.333278
0.333883
0.333045
0.330967
0.328055
0.324754
0.321379
0.318147
0.315156
0.312461
0.310801
0.306546
0.308058
0.30874
0.307802
0.30558
0.302431
0.29852
0.293883
0.288467
0.282327
0.27582
0.270195
0.267977
0.273242
0.285287
0.299402
0.31258
0.323366
0.330795
0.334179
0.334043
0.332587
0.329961
0.326523
0.322666
0.318635
0.314612
0.310681
0.307033
0.304468
0.320601
0.324417
0.328067
0.330897
0.333136
0.33507
0.336445
0.336942
0.336477
0.335005
0.332631
0.330327
0.3294
0.332769
0.340446
0.34928
0.357229
0.363641
0.3672
0.367746
0.365788
0.362678
0.358465
0.353406
0.347837
0.341914
0.335863
0.329744
0.32382
0.319074
0.482701
0.489372
0.49579
0.50204
0.508216
0.514526
0.518757
0.520397
0.520205
0.518445
0.515186
0.511927
0.508366
0.506144
0.504943
0.50474
0.505347
0.507133
0.507507
0.507457
0.507615
0.508045
0.508017
0.5071
0.50515
0.502093
0.498109
0.493168
0.487664
0.482228
0.146124
0.157776
0.160298
0.158047
0.152352
0.144275
0.134419
0.123499
0.111914
0.100917
0.0916059
0.0861789
0.0852729
0.101869
0.141219
0.195004
0.24009
0.277938
0.293512
0.28375
0.264041
0.241337
0.217747
0.195505
0.175542
0.158174
0.144108
0.132069
0.124538
0.119223
0.27233
0.277108
0.271524
0.261694
0.249605
0.235882
0.221026
0.205843
0.190796
0.177689
0.16693
0.163174
0.169507
0.206931
0.272751
0.355045
0.424992
0.484812
0.51109
0.493818
0.460714
0.422504
0.383068
0.346484
0.313918
0.285894
0.263404
0.243648
0.23044
0.224261
0.355484
0.357438
0.351265
0.340747
0.327523
0.312019
0.294923
0.277383
0.260086
0.245212
0.233245
0.229962
0.240163
0.289405
0.36844
0.463759
0.543655
0.610178
0.642296
0.62682
0.590791
0.547328
0.501704
0.458681
0.420047
0.386591
0.359684
0.336216
0.321064
0.316473
0.417242
0.416078
0.409615
0.399403
0.386315
0.37053
0.352792
0.33439
0.316199
0.300604
0.288242
0.285462
0.298629
0.354908
0.438408
0.537731
0.620566
0.687374
0.721772
0.710397
0.675506
0.631684
0.584802
0.539955
0.499278
0.463666
0.434661
0.40951
0.392842
0.388865
0.465553
0.462134
0.455373
0.445669
0.433081
0.417587
0.399944
0.381455
0.363167
0.347408
0.334994
0.332618
0.34795
0.407792
0.490885
0.589372
0.671396
0.736022
0.770578
0.763707
0.731729
0.68993
0.644312
0.600058
0.559464
0.523544
0.493827
0.468234
0.450301
0.446118
0.5048
0.499988
0.492979
0.483707
0.471595
0.456537
0.439277
0.421077
0.403071
0.387422
0.375122
0.37303
0.389821
0.450502
0.53061
0.625354
0.704378
0.766128
0.799588
0.796909
0.768645
0.730067
0.687107
0.644822
0.605569
0.570469
0.540911
0.515554
0.496736
0.491876
0.537675
0.532151
0.524943
0.515945
0.504147
0.489466
0.472634
0.454862
0.437253
0.421781
0.40964
0.40768
0.425393
0.484584
0.560512
0.649967
0.724907
0.783336
0.815499
0.816363
0.792181
0.757443
0.717914
0.678418
0.641273
0.607679
0.578866
0.554121
0.534839
0.529137
0.565971
0.560137
0.552763
0.543836
0.532147
0.517697
0.501222
0.483846
0.466608
0.451275
0.439251
0.437228
0.455325
0.511387
0.582506
0.666232
0.736533
0.791399
0.822637
0.826304
0.806412
0.7758
0.740075
0.703836
0.669262
0.637613
0.609942
0.586048
0.566721
0.560203
0.590802
0.584838
0.577272
0.568227
0.556453
0.542069
0.525812
0.508728
0.491755
0.47647
0.464469
0.462155
0.480024
0.531928
0.598775
0.676326
0.741715
0.793732
0.824019
0.829695
0.814205
0.787794
0.755958
0.723173
0.691439
0.662002
0.635754
0.612893
0.593894
0.586701
0.612797
0.606715
0.598896
0.589576
0.57756
0.56309
0.546903
0.529975
0.513136
0.497786
0.485689
0.482781
0.499817
0.546873
0.609978
0.681858
0.743066
0.792728
0.821312
0.828614
0.817301
0.795299
0.76726
0.737866
0.709075
0.682002
0.657376
0.6357
0.617344
0.609646
0.632218
0.625936
0.617804
0.608102
0.59573
0.581054
0.564799
0.547899
0.531077
0.515562
0.503231
0.499345
0.514966
0.556562
0.617218
0.684089
0.741859
0.788083
0.815941
0.8246
0.816101
0.799009
0.775132
0.748922
0.722987
0.698316
0.675445
0.655086
0.637623
0.629583
0.649061
0.642486
0.634006
0.623882
0.611093
0.596124
0.579697
0.56272
0.545842
0.530091
0.517395
0.512277
0.525722
0.56335
0.621352
0.684424
0.738376
0.781911
0.808944
0.818793
0.81296
0.799084
0.779744
0.757088
0.733727
0.711353
0.690299
0.671357
0.654966
0.64672
0.663186
0.656264
0.647441
0.636902
0.623694
0.608397
0.591749
0.574645
0.557696
0.541717
0.528575
0.522123
0.533655
0.569143
0.624334
0.684258
0.734592
0.775299
0.801266
0.811968
0.808067
0.796982
0.781212
0.762255
0.741809
0.721428
0.702121
0.684633
0.669406
0.661054
0.67442
0.667159
0.658031
0.6471
0.633514
0.617928
0.601107
0.583938
0.567006
0.550919
0.537395
0.529947
0.540517
0.573888
0.626585
0.683458
0.731242
0.769613
0.794031
0.804908
0.802247
0.793468
0.779928
0.764298
0.74687
0.728889
0.711152
0.694989
0.680905
0.672498
0.682603
0.675059
0.665664
0.654382
0.640506
0.624766
0.60797
0.590999
0.574335
0.558655
0.544992
0.536671
0.54638
0.577942
0.628443
0.682424
0.72788
0.76404
0.787507
0.798676
0.796442
0.788824
0.777122
0.763264
0.748584
0.733114
0.717456
0.70268
0.6895
0.680989
0.687616
0.679846
0.670398
0.659088
0.645182
0.629564
0.612982
0.59658
0.580617
0.564997
0.551032
0.542316
0.551373
0.581683
0.630187
0.681447
0.724689
0.758756
0.781169
0.792308
0.790633
0.783988
0.773473
0.760578
0.747293
0.733699
0.720355
0.707361
0.69548
0.686722
0.690111
0.682213
0.672959
0.661843
0.648176
0.633095
0.617141
0.601211
0.585553
0.569913
0.555955
0.547286
0.55592
0.585409
0.632035
0.680731
0.721799
0.753862
0.775144
0.786035
0.784716
0.778603
0.768845
0.756899
0.744449
0.731779
0.719668
0.708322
0.698022
0.689837
0.69057
0.682765
0.674
0.663405
0.650278
0.635681
0.62028
0.60483
0.58946
0.574024
0.560337
0.552015
0.560442
0.589372
0.634152
0.680406
0.719266
0.749384
0.769486
0.779988
0.778872
0.773033
0.763691
0.752368
0.740394
0.728431
0.717176
0.706558
0.697082
0.689605
0.689738
0.682373
0.673989
0.663729
0.651105
0.637309
0.622752
0.60802
0.593095
0.578016
0.564776
0.556971
0.565388
0.593797
0.636653
0.680441
0.717072
0.745265
0.76417
0.774224
0.773249
0.767576
0.758454
0.747386
0.735702
0.724083
0.713249
0.703277
0.69449
0.68771
0.686502
0.679692
0.672138
0.662769
0.651298
0.638675
0.62522
0.611373
0.597056
0.582609
0.569967
0.562683
0.571186
0.598906
0.639642
0.680762
0.715159
0.741418
0.75912
0.768751
0.767971
0.762526
0.753547
0.742537
0.730896
0.719371
0.70863
0.698845
0.690367
0.684279
0.681827
0.675665
0.669293
0.661299
0.651634
0.640494
0.628315
0.615488
0.602211
0.588593
0.576651
0.569784
0.578314
0.604992
0.643293
0.681446
0.713516
0.73779
0.754282
0.763564
0.763145
0.758108
0.749353
0.738444
0.726704
0.715002
0.70405
0.694005
0.685288
0.679398
0.676813
0.671588
0.66661
0.660644
0.652916
0.643422
0.632825
0.621547
0.609525
0.596873
0.585652
0.579114
0.587398
0.61256
0.648013
0.682935
0.71251
0.734541
0.749773
0.758744
0.758935
0.754529
0.746248
0.73543
0.723569
0.711618
0.70029
0.689779
0.68042
0.674122
0.672554
0.668577
0.665582
0.661678
0.655899
0.648713
0.64025
0.630761
0.620193
0.608638
0.598241
0.591953
0.599498
0.622628
0.654792
0.686147
0.71297
0.73238
0.746174
0.754759
0.755794
0.752197
0.744422
0.733801
0.721954
0.709792
0.69804
0.68689
0.676863
0.669715
0.67022
0.668064
0.667231
0.665711
0.662609
0.65809
0.652184
0.644913
0.636165
0.625999
0.616597
0.610558
0.616768
0.637417
0.665919
0.693342
0.71662
0.733434
0.74562
0.7532
0.754933
0.751848
0.744663
0.734626
0.722956
0.710412
0.697921
0.686023
0.675236
0.667253
0.671663
0.671619
0.673697
0.675273
0.675424
0.674277
0.671666
0.667344
0.661066
0.652972
0.645029
0.639502
0.644056
0.661867
0.686572
0.70974
0.728727
0.742079
0.751731
0.75793
0.759776
0.757361
0.750907
0.74141
0.729982
0.717098
0.703755
0.690356
0.67777
0.668152
0.67994
0.682915
0.688898
0.694666
0.699438
0.703043
0.705237
0.705289
0.70288
0.698357
0.693071
0.688973
0.69243
0.70694
0.728074
0.746487
0.759773
0.768687
0.774631
0.778123
0.778655
0.775993
0.769454
0.759592
0.747541
0.733675
0.718856
0.703346
0.688379
0.67658
0.704278
0.712023
0.723635
0.735697
0.747466
0.758575
0.768616
0.77599
0.780456
0.782131
0.781696
0.780748
0.784188
0.795223
0.811544
0.823274
0.829349
0.832417
0.832962
0.832033
0.829322
0.824893
0.816921
0.805206
0.790545
0.773582
0.755254
0.735803
0.716876
0.701633
0.768565
0.784606
0.805304
0.827392
0.850164
0.873021
0.895046
0.913481
0.927885
0.937972
0.943296
0.945242
0.946825
0.950942
0.95609
0.955589
0.950567
0.945457
0.938659
0.933446
0.929737
0.926601
0.918626
0.905662
0.888484
0.867143
0.84254
0.815791
0.789501
0.767577
0.930263
0.958923
0.99077
1.02299
1.05559
1.08767
1.11723
1.14174
1.15914
1.16695
1.16385
1.15467
1.14047
1.12295
1.10041
1.07452
1.05139
1.03385
1.0186
1.0119
1.01483
1.02519
1.03313
1.0374
1.03675
1.02864
1.01313
0.990371
0.960349
0.930938
1.09372
1.13843
1.17698
1.20672
1.22983
1.24887
1.26121
1.26598
1.26167
1.24611
1.2195
1.18768
1.15081
1.11032
1.06364
1.02137
0.989673
0.96613
0.94726
0.939611
0.944162
0.960102
0.983241
1.00933
1.03502
1.05762
1.07512
1.08574
1.08602
1.08551
0.188075
0.202345
0.206234
0.204559
0.198424
0.189079
0.177332
0.16428
0.150534
0.138207
0.128692
0.128903
0.146677
0.188034
0.243705
0.308758
0.36328
0.411235
0.428157
0.4099
0.379779
0.346377
0.312457
0.280626
0.251978
0.22686
0.20577
0.186831
0.17179
0.158697
0.340542
0.353923
0.353559
0.346766
0.335322
0.320439
0.303187
0.285013
0.266907
0.251551
0.23926
0.244829
0.281787
0.356775
0.451968
0.557624
0.643992
0.716911
0.743079
0.709596
0.657132
0.598918
0.540749
0.487343
0.440022
0.399009
0.364957
0.333481
0.308009
0.288148
0.440757
0.450012
0.449341
0.442966
0.431447
0.415692
0.396955
0.377066
0.357519
0.341425
0.329544
0.33926
0.385474
0.475019
0.584182
0.701776
0.796373
0.872609
0.903184
0.87051
0.814351
0.749729
0.684288
0.623278
0.568796
0.521102
0.481339
0.444799
0.416417
0.398479
0.513559
0.51809
0.516944
0.510973
0.500075
0.48475
0.466239
0.446464
0.427241
0.411799
0.401599
0.415089
0.466339
0.561366
0.673029
0.791025
0.885906
0.958908
0.99071
0.962378
0.907929
0.843373
0.777064
0.714508
0.658219
0.608523
0.566778
0.528744
0.499363
0.483574
0.570275
0.571406
0.569645
0.563889
0.553566
0.538945
0.521228
0.502291
0.484078
0.469822
0.461678
0.478285
0.532083
0.627147
0.735838
0.84907
0.940332
1.00836
1.03955
1.01648
0.965961
0.904332
0.840142
0.779042
0.723631
0.674342
0.632474
0.594646
0.564699
0.550302
0.616854
0.615898
0.613433
0.607666
0.597682
0.583683
0.566836
0.548928
0.531908
0.518972
0.512905
0.531958
0.586663
0.678284
0.781297
0.887318
0.972806
1.03577
1.06535
1.04753
1.00199
0.944628
0.884039
0.825895
0.772739
0.725135
0.684153
0.647398
0.61742
0.603877
0.656775
0.654635
0.651428
0.645413
0.635486
0.621896
0.605781
0.588833
0.572949
0.561256
0.557105
0.577963
0.632319
0.71858
0.814574
0.912379
0.991237
1.04901
1.07708
1.06405
1.02402
0.971641
0.915411
0.86103
0.810904
0.76567
0.726189
0.690946
0.661504
0.648431
0.692267
0.689344
0.685326
0.678837
0.668698
0.655265
0.639671
0.623498
0.608583
0.597974
0.595474
0.617543
0.670664
0.750578
0.839047
0.928474
1.00053
1.05319
1.08009
1.0714
1.03723
0.990169
0.938604
0.888402
0.841727
0.79925
0.761649
0.728139
0.699695
0.686868
0.724536
0.720925
0.715981
0.708817
0.698247
0.684757
0.66946
0.653855
0.639707
0.629998
0.628859
0.651627
0.702827
0.776146
0.857128
0.938414
1.00381
1.05331
1.07784
1.07251
1.04485
1.00318
0.956433
0.910515
0.8675
0.827981
0.792489
0.760831
0.733696
0.720997
0.754079
0.749671
0.743717
0.735713
0.724568
0.71087
0.695697
0.680482
0.666927
0.65794
0.657898
0.680946
0.729634
0.796586
0.870575
0.944328
1.00427
1.0492
1.07259
1.06998
1.04796
1.01228
0.97054
0.928845
0.889534
0.853046
0.819795
0.790048
0.764411
0.75175
0.780904
0.775545
0.768535
0.759613
0.747816
0.73382
0.718668
0.703738
0.690669
0.682281
0.683081
0.706103
0.751786
0.81296
0.880735
0.947734
1.00264
1.04342
1.06574
1.06542
1.04782
1.01821
0.981793
0.944185
0.908461
0.874971
0.844014
0.816206
0.792153
0.779452
0.804736
0.79832
0.790257
0.780422
0.76798
0.753679
0.738527
0.723861
0.711269
0.703421
0.704845
0.727556
0.770042
0.826246
0.888766
0.949883
0.999915
1.03709
1.05823
1.05974
1.0459
1.02175
0.990415
0.956913
0.924493
0.893866
0.865197
0.839322
0.816862
0.804055
0.825202
0.817705
0.808647
0.797988
0.785001
0.770479
0.755403
0.741079
0.729056
0.721754
0.723666
0.745843
0.785176
0.837415
0.895825
0.951989
0.99799
1.03129
1.05095
1.05372
1.04297
1.02318
0.996596
0.967189
0.937714
0.909679
0.883206
0.859215
0.838289
0.825311
0.841946
0.83343
0.823509
0.812192
0.798867
0.784316
0.769508
0.755705
0.744451
0.737768
0.74016
0.76168
0.798578
0.847368
0.902046
0.95364
0.99599
1.02639
1.04488
1.04819
1.03953
1.02267
1.0004
0.974772
0.948305
0.922418
0.897925
0.875677
0.856153
0.842916
0.854718
0.84531
0.834741
0.823039
0.809703
0.79543
0.781218
0.768217
0.75807
0.752158
0.754921
0.775801
0.810531
0.856278
0.907508
0.95482
0.993751
1.02159
1.03908
1.04321
1.03622
1.02133
1.00203
0.979581
0.955909
0.932358
0.909485
0.888657
0.870286
0.856655
0.863422
0.853274
0.842381
0.83072
0.817864
0.8043
0.79119
0.779344
0.770175
0.765021
0.768276
0.788484
0.82125
0.864276
0.912255
0.955433
0.991104
1.01659
1.03328
1.03816
1.03249
1.01934
1.00203
0.9819
0.96034
0.938762
0.917852
0.898457
0.880849
0.866672
0.868659
0.857907
0.847066
0.835833
0.824062
0.811709
0.799735
0.789117
0.781079
0.776759
0.780599
0.800046
0.831025
0.871507
0.916328
0.955567
0.987921
1.01113
1.02717
1.03279
1.02819
1.01666
1.00062
0.981852
0.96198
0.941784
0.92219
0.904199
0.887803
0.873588
0.871367
0.860373
0.849981
0.839577
0.828738
0.817794
0.807295
0.798121
0.791324
0.787873
0.792319
0.81089
0.840186
0.87815
0.9198
0.955102
0.984081
1.00498
1.02047
1.02684
1.02323
1.01336
0.998341
0.980397
0.961095
0.941536
0.92276
0.905501
0.889819
0.876376
0.872169
0.861199
0.851506
0.842242
0.832681
0.823386
0.814594
0.807036
0.801553
0.798976
0.803935
0.821533
0.849126
0.884462
0.922823
0.953892
0.979526
0.998041
1.01298
1.02017
1.01764
1.00941
0.995542
0.978256
0.959268
0.93991
0.921211
0.903964
0.888477
0.875665
0.871139
0.860818
0.852309
0.844538
0.836654
0.829321
0.822461
0.816644
0.812528
0.810816
0.816122
0.832597
0.858368
0.890847
0.925721
0.952293
0.974364
0.990331
1.00464
1.01269
1.01149
1.00491
0.992533
0.975997
0.957184
0.937733
0.918791
0.901207
0.885506
0.873047
0.868668
0.859629
0.853154
0.847222
0.841689
0.836562
0.831852
0.827891
0.825197
0.824346
0.829814
0.844888
0.868681
0.897996
0.929109
0.950799
0.968977
0.982147
0.995597
1.00444
1.00496
1.00017
0.989672
0.974121
0.955495
0.935823
0.916441
0.898241
0.882011
0.869445
0.866181
0.859377
0.854997
0.851698
0.848846
0.846279
0.843958
0.84201
0.840812
0.840883
0.846312
0.859653
0.881264
0.907087
0.934089
0.950419
0.964227
0.974238
0.986435
0.995815
0.998447
0.995688
0.987401
0.973073
0.954781
0.934878
0.915006
0.896087
0.879127
0.866085
0.865883
0.861142
0.859551
0.859341
0.859649
0.860054
0.860439
0.860753
0.861211
0.862377
0.867608
0.878956
0.898074
0.920129
0.942604
0.953032
0.961804
0.968173
0.978576
0.987938
0.992751
0.992348
0.986378
0.973967
0.956959
0.936647
0.915568
0.895597
0.877826
0.864204
0.868784
0.866965
0.868696
0.872291
0.87639
0.880306
0.883884
0.886928
0.889412
0.891888
0.896999
0.906425
0.922455
0.940567
0.958113
0.961983
0.964846
0.967006
0.974852
0.98341
0.989767
0.991942
0.989281
0.979922
0.964922
0.945208
0.923011
0.900837
0.880827
0.865648
0.878652
0.879899
0.886074
0.89421
0.902842
0.91107
0.918663
0.925262
0.930489
0.934827
0.940228
0.948039
0.960826
0.974148
0.98641
0.982933
0.978616
0.975595
0.979867
0.986621
0.993564
0.998097
0.998644
0.992679
0.980281
0.961952
0.939256
0.915206
0.892624
0.874932
0.900545
0.906409
0.91811
0.931895
0.946255
0.960087
0.97307
0.984565
0.993693
1.00086
1.00728
1.0139
1.02306
1.03043
1.03584
1.0231
1.00909
0.998864
0.998201
1.00234
1.00956
1.01686
1.0207
1.01848
1.00889
0.99231
0.970121
0.944204
0.918158
0.896854
0.947643
0.960085
0.97876
0.999675
1.02138
1.04255
1.06265
1.08051
1.09462
1.10521
1.11262
1.11721
1.12045
1.11822
1.11134
1.08157
1.05512
1.03625
1.02862
1.0297
1.03782
1.04953
1.05968
1.06428
1.06058
1.04784
1.0271
1.00004
0.970726
0.945096
1.04708
1.06811
1.09483
1.12361
1.15321
1.18189
1.20862
1.23149
1.24819
1.25869
1.26214
1.25797
1.24572
1.22234
1.18821
1.13611
1.09569
1.06785
1.05275
1.05049
1.06093
1.07984
1.10007
1.11669
1.12877
1.13185
1.12258
1.10217
1.07429
1.04636
1.20196
1.23782
1.27517
1.3104
1.34252
1.37115
1.3948
1.4109
1.41618
1.41069
1.39403
1.36488
1.32096
1.26543
1.20281
1.13164
1.08075
1.04679
1.02641
1.02175
1.03359
1.05805
1.0883
1.12069
1.15163
1.17894
1.1993
1.20894
1.20535
1.19627
1.20497
1.26075
1.31071
1.35105
1.3812
1.40224
1.41309
1.41327
1.39921
1.37251
1.33347
1.28425
1.22458
1.15625
1.08295
1.01177
0.963403
0.931682
0.912011
0.906613
0.915718
0.936715
0.965719
0.999662
1.03605
1.07255
1.10679
1.13604
1.16021
1.1873
0.223806
0.239622
0.245082
0.244982
0.239596
0.230145
0.217623
0.203567
0.188701
0.175541
0.165134
0.173245
0.208333
0.268718
0.341448
0.421539
0.487589
0.548424
0.56439
0.53335
0.489067
0.443342
0.398125
0.35615
0.318576
0.285759
0.257928
0.232644
0.210837
0.189862
0.393967
0.417058
0.424646
0.422921
0.413642
0.398868
0.380399
0.360544
0.340432
0.323052
0.308807
0.327605
0.392916
0.501535
0.628686
0.762084
0.868821
0.952268
0.973262
0.920484
0.843954
0.76236
0.683364
0.612044
0.549288
0.495355
0.450733
0.409421
0.374077
0.340602
0.506934
0.524696
0.532433
0.531788
0.523105
0.50815
0.488905
0.468049
0.447369
0.430403
0.419066
0.445043
0.521928
0.646808
0.788547
0.93428
1.0497
1.13415
1.15804
1.10387
1.02202
0.931474
0.843154
0.762617
0.691436
0.629796
0.57862
0.53166
0.493246
0.463266
0.58756
0.599274
0.60635
0.605905
0.597998
0.583935
0.565639
0.545762
0.526531
0.511778
0.504996
0.536696
0.618606
0.747578
0.889937
1.03416
1.14854
1.2272
1.25182
1.20154
1.1212
1.02973
0.939633
0.85693
0.783661
0.719982
0.666928
0.618886
0.580239
0.55523
0.64905
0.657302
0.663504
0.662811
0.65541
0.64233
0.62541
0.607171
0.590062
0.57809
0.576271
0.612502
0.6964
0.822966
0.960169
1.09698
1.20531
1.27673
1.30061
1.2561
1.18003
1.09104
1.00237
0.920655
0.848206
0.785202
0.732492
0.685486
0.647516
0.626661
0.6998
0.706079
0.711166
0.709948
0.702749
0.690484
0.674912
0.658416
0.643552
0.634373
0.637616
0.677255
0.76137
0.882191
1.01146
1.13807
1.2377
1.30207
1.32435
1.28621
1.21597
1.13124
1.04558
0.966394
0.89616
0.835136
0.783834
0.738832
0.702167
0.684399
0.744246
0.749279
0.752982
0.751018
0.743729
0.732032
0.717615
0.702746
0.69002
0.683499
0.691497
0.733694
0.816902
0.930421
1.0505
1.16579
1.25582
1.31328
1.33392
1.30217
1.2387
1.15939
1.0776
1.00176
0.934483
0.876035
0.826685
0.784025
0.749112
0.733456
0.784863
0.78881
0.790835
0.787962
0.780341
0.768961
0.755469
0.742029
0.731252
0.727234
0.739448
0.783591
0.865129
0.970794
1.08132
1.18517
1.26562
1.31636
1.33581
1.31045
1.25388
1.18062
1.10347
1.03139
0.967445
0.911834
0.864668
0.824349
0.791406
0.777077
0.82291
0.825515
0.825615
0.821709
0.813585
0.802334
0.789563
0.777361
0.768316
0.766684
0.782545
0.828235
0.907405
1.00531
1.10644
1.19927
1.27062
1.31631
1.33368
1.31376
1.26438
1.19782
1.12594
1.05789
0.997453
0.944729
0.899777
0.861659
0.830673
0.81706
0.858707
0.859427
0.857685
0.852592
0.843861
0.832634
0.820465
0.809367
0.801861
0.802611
0.82155
0.868528
0.94471
1.03528
1.12749
1.20994
1.2729
1.31371
1.32961
1.31412
1.27205
1.2124
1.14628
1.08248
1.02557
0.975662
0.932847
0.896725
0.867539
0.854131
0.89189
0.89047
0.886927
0.880611
0.871257
0.860034
0.848427
0.838387
0.832322
0.835502
0.856984
0.90492
0.977744
1.06154
1.1456
1.21854
1.27394
1.30987
1.32463
1.3127
1.27792
1.22518
1.16494
1.1055
1.052
1.00476
0.96395
0.929602
0.901991
0.888388
0.921883
0.918354
0.913025
0.905533
0.895637
0.8845
0.873529
0.864612
0.860003
0.8656
0.889235
0.937745
1.00706
1.08472
1.16164
1.22595
1.27446
1.30563
1.31925
1.31024
1.28199
1.23624
1.18181
1.12677
1.07642
1.03167
0.992731
0.959953
0.933693
0.919616
0.948178
0.942594
0.935603
0.927075
0.91682
0.905954
0.895795
0.88817
0.885124
0.893117
0.918632
0.967312
1.03318
1.10535
1.17501
1.23104
1.2739
1.30126
1.31381
1.30693
1.28399
1.24513
1.19665
1.14591
1.09843
1.05593
1.01869
0.987311
0.962166
0.947358
0.970271
0.962767
0.954338
0.945026
0.934702
0.924401
0.915329
0.909226
0.907959
0.918325
0.945583
0.993958
1.05629
1.12289
1.1855
1.23334
1.27016
1.2945
1.30704
1.30266
1.28331
1.25135
1.20885
1.16255
1.11772
1.07714
1.0414
1.01119
0.986879
0.971088
0.987798
0.978581
0.969061
0.959357
0.94936
0.940019
0.932388
0.928074
0.92898
0.941574
0.970246
1.01757
1.0763
1.13725
1.19299
1.233
1.26378
1.28515
1.29778
1.29553
1.28048
1.25426
1.2178
1.17624
1.13423
1.09518
1.06061
1.03125
1.00743
0.990397
1.00062
0.989956
0.979843
0.970301
0.96113
0.953266
0.947457
0.944909
0.948152
0.962728
0.992553
1.03819
1.09322
1.14847
1.19746
1.22955
1.25464
1.27308
1.28573
1.28556
1.27465
1.25209
1.22228
1.18627
1.14731
1.11024
1.07648
1.04745
1.02373
1.00525
1.00882
0.997064
0.987101
0.978465
0.97066
0.964474
0.960591
0.960002
0.965687
0.981992
1.01252
1.056
1.10716
1.15669
1.19904
1.22335
1.24281
1.25821
1.27072
1.27271
1.26507
1.24708
1.22055
1.19003
1.15597
1.12125
1.08844
1.06012
1.03619
1.01635
1.01404
1.00122
0.991615
0.984375
0.978298
0.974102
0.972283
0.973983
0.981964
0.999695
1.03033
1.07127
1.1184
1.16218
1.19801
1.21463
1.22849
1.24057
1.25281
1.25694
1.25227
1.23863
1.21595
1.18826
1.15799
1.12656
1.09542
1.06743
1.04342
1.02332
1.01668
1.00336
0.994602
0.98889
0.984854
0.982887
0.983354
0.987526
0.997531
1.01634
1.04635
1.0845
1.12739
1.16541
1.19483
1.20382
1.21194
1.22044
1.23224
1.23838
1.23654
1.22681
1.20894
1.18405
1.15604
1.12615
1.09653
1.06897
1.04494
1.02541
1.01718
1.00422
0.99688
0.992963
0.99125
0.991746
0.994892
1.00142
1.01313
1.03253
1.06136
1.09644
1.13486
1.16691
1.19021
1.19147
1.19354
1.19831
1.20943
1.21727
1.21836
1.21241
1.19885
1.17798
1.15237
1.12401
1.09499
1.06743
1.04321
1.02404
1.01591
1.0047
0.999283
0.997638
0.998643
1.0021
1.00795
1.01671
1.02981
1.04926
1.07648
1.1082
1.14191
1.16772
1.18513
1.17818
1.17407
1.17489
1.18494
1.19405
1.19822
1.19599
1.18671
1.17058
1.14779
1.12116
1.09275
1.06503
1.04035
1.02121
1.01464
1.00606
1.00324
1.0044
1.0088
1.01537
1.02393