/*--------------------------------*- C++ -*----------------------------------*\
| =========                 |                                                 |
| \\      /  F ield         | OpenFOAM: The Open Source CFD Toolbox           |
|  \\    /   O peration     | Version:  5.0                                   |
|   \\  /    A nd           | Web:      www.OpenFOAM.org                      |
|    \\/     M anipulation  |                                                 |
\*---------------------------------------------------------------------------*/
FoamFile
{
    version     2.0;
    format      ascii;
    class       volScalarField;
    location    "350/air";
    object      nut;
}
// * * * * * * * * * * * * * * * * * * * * * * * * * * * * * * * * * * * * * //

dimensions      [0 2 -1 0 0 0 0];

internalField   nonuniform List<scalar> 
243000
(
0.000159256
0.00015902
0.000154837
0.000148829
0.000141791
0.000134222
0.000126419
0.000118619
0.000110933
0.000103623
9.69664e-05
9.1199e-05
8.52374e-05
7.89364e-05
8.31105e-05
0.000116619
0.000135414
0.000148105
0.000154383
0.000154513
0.000151546
0.000147808
0.00014344
0.000139047
0.000134961
0.000131384
0.00012902
0.000127884
0.000131433
0.000137478
0.000756941
0.000767769
0.000763184
0.000751607
0.000736349
0.000718206
0.000697481
0.00067473
0.00065008
0.000624872
0.000600049
0.0005777
0.000551972
0.000525891
0.0005874
0.000790938
0.00089726
0.000967611
0.000996139
0.000982386
0.000947036
0.000906052
0.00086049
0.000815458
0.000772558
0.00073343
0.000701142
0.000675056
0.000665678
0.000666348
0.000845154
0.000854476
0.000847532
0.000833573
0.000816057
0.00079582
0.000773146
0.000748622
0.000722379
0.000695921
0.000670118
0.000646791
0.000619319
0.000594069
0.000679158
0.000885611
0.000995116
0.00106756
0.00109895
0.00108727
0.00105172
0.00100963
0.000962774
0.000916346
0.000872159
0.000832078
0.000798974
0.000772696
0.000762246
0.000764554
0.000905925
0.000914012
0.000906435
0.000892093
0.000874092
0.000853269
0.000829929
0.000804697
0.000777745
0.000750705
0.000724263
0.000699951
0.000670822
0.000646742
0.00074837
0.000949764
0.00105868
0.00113035
0.00116287
0.00115409
0.00111985
0.00107844
0.00103222
0.000986257
0.000942542
0.000903046
0.000870326
0.000844839
0.000833892
0.000837631
0.000951197
0.000957997
0.00095041
0.000936408
0.000918667
0.000897938
0.000874551
0.000849164
0.00082201
0.000794712
0.000767742
0.000742311
0.00071155
0.000688849
0.000801975
0.000994908
0.00110107
0.00117095
0.00120352
0.00119788
0.00116567
0.00112591
0.00108132
0.00103681
0.000994497
0.000956373
0.00092474
0.000900497
0.000889513
0.000894226
0.000986568
0.000992193
0.000984811
0.00097138
0.000954163
0.000933803
0.000910648
0.000885371
0.000858259
0.000830839
0.000803326
0.000776609
0.000744216
0.000723048
0.000843788
0.00102686
0.00112914
0.00119688
0.00122894
0.00122636
0.0011966
0.00115901
0.00111663
0.00107414
0.00103375
0.000997447
0.000967306
0.000944558
0.0009339
0.000939192
0.00101519
0.00101978
0.00101263
0.000999801
0.000983145
0.000963218
0.000940383
0.000915327
0.000888342
0.000860808
0.000832675
0.000804497
0.000770435
0.000750914
0.000876225
0.0010491
0.001147
0.0012124
0.00124388
0.00124411
0.001217
0.00118194
0.00114211
0.00110199
0.00106384
0.00102962
0.00100125
0.000980133
0.000970076
0.000975687
0.00103897
0.00104265
0.00103569
0.00102337
0.0010072
0.000987657
0.000965134
0.000940303
0.000913442
0.000885733
0.000856857
0.000827034
0.000791248
0.000773472
0.000900976
0.00106388
0.00115723
0.00122012
0.0012513
0.00125398
0.00122975
0.00119741
0.00116033
0.0011228
0.00108709
0.00105515
0.00102873
0.00100933
0.00100008
0.00100586
0.00105908
0.00106195
0.00105509
0.00104314
0.00102733
0.00100808
0.000985801
0.00096115
0.00093435
0.000906367
0.000876597
0.000844986
0.000807277
0.000791536
0.000919324
0.00107272
0.00116143
0.00122236
0.0012531
0.00125793
0.00123685
0.00120738
0.00117312
0.00113823
0.00110508
0.00107554
0.00105122
0.0010336
0.0010253
0.00103118
0.00107626
0.00107836
0.00107149
0.00105978
0.00104418
0.00102511
0.00100299
0.000978437
0.00095161
0.00092323
0.00089242
0.000858816
0.000819067
0.000806601
0.000932204
0.00107667
0.00116176
0.00122045
0.0012505
0.00125713
0.00123918
0.00121291
0.00118167
0.00114957
0.0011189
0.00109184
0.00106971
0.00105392
0.00104669
0.00105264
0.00109092
0.00109225
0.00108528
0.00107367
0.00105816
0.00103915
0.00101709
0.000992551
0.000965596
0.000936712
0.000904664
0.000868821
0.000827412
0.000821424
0.00094079
0.00107691
0.00115805
0.00121466
0.00124443
0.0012527
0.00123747
0.00121443
0.00118651
0.00115733
0.00112939
0.00110473
0.00108486
0.00107094
0.00106484
0.00107085
0.00110324
0.00110379
0.00109665
0.00108503
0.00106948
0.00105043
0.00102835
0.00100374
0.000976573
0.000947017
0.000913463
0.000875301
0.00083515
0.000835633
0.00094845
0.00107351
0.00115119
0.00120591
0.00123548
0.00124528
0.00123294
0.00121255
0.00118798
0.00116197
0.00113685
0.00111464
0.00109704
0.001085
0.00108008
0.00108615
0.00111324
0.001113
0.00110564
0.00109392
0.00107821
0.00105904
0.00103683
0.00101205
0.000984527
0.000954125
0.000919018
0.000879197
0.000843165
0.000849104
0.000955194
0.00106853
0.00114195
0.00119465
0.00122404
0.00123529
0.00122557
0.00120803
0.00118636
0.0011636
0.00114149
0.00112192
0.00110645
0.00109628
0.00109255
0.00109866
0.00112079
0.00111982
0.00111218
0.00110026
0.00108438
0.00106506
0.00104271
0.00101771
0.000989774
0.000958516
0.000922132
0.000883374
0.000851322
0.000861735
0.000961103
0.00106414
0.00113285
0.00118168
0.00121063
0.00122303
0.00121571
0.00120094
0.00118209
0.00116223
0.00114327
0.00112647
0.0011132
0.00110482
0.00110224
0.00110838
0.00112572
0.00112405
0.00111615
0.00110407
0.00108803
0.00106857
0.00104607
0.00102086
0.000992481
0.000960561
0.000924535
0.00088796
0.000859467
0.000873481
0.000966211
0.00106014
0.00112471
0.00117041
0.00119773
0.00120962
0.0012038
0.00119152
0.00117534
0.00115819
0.00114201
0.00112807
0.00111733
0.0011106
0.00110909
0.00111522
0.00112781
0.00112559
0.00111755
0.00110537
0.00108923
0.00106966
0.00104705
0.00102167
0.000993001
0.000961589
0.000927289
0.000892769
0.000867457
0.000884298
0.00097052
0.00105643
0.00111715
0.00116018
0.00118608
0.00119762
0.00119282
0.00118169
0.00116682
0.00115179
0.00113809
0.00112654
0.00111829
0.00111352
0.00111295
0.00111908
0.00112697
0.00112434
0.0011163
0.00110409
0.00108791
0.00106831
0.00104566
0.00102052
0.000993024
0.000962904
0.000930177
0.000897594
0.000875153
0.000894116
0.000974012
0.00105284
0.00110992
0.00115065
0.00117532
0.00118665
0.00118275
0.00117281
0.00115927
0.00114556
0.00113278
0.00112239
0.00111618
0.00111316
0.0011136
0.00111997
0.00112297
0.00112003
0.00111213
0.00110006
0.00108417
0.00106536
0.00104366
0.00101958
0.00099319
0.000964284
0.000933036
0.000902299
0.000882447
0.000902882
0.000976682
0.00104916
0.00110282
0.00114153
0.00116512
0.00117631
0.00117323
0.00116447
0.00115232
0.00113982
0.00112797
0.00111832
0.0011122
0.00110966
0.00111079
0.00111745
0.00111626
0.00111392
0.0011069
0.00109563
0.00108055
0.00106251
0.00104172
0.00101866
0.00099332
0.000965575
0.000935746
0.000906781
0.000889265
0.000910552
0.000978535
0.00104523
0.00109574
0.00113252
0.00115523
0.0011663
0.00116396
0.00115634
0.00114555
0.00113421
0.00112328
0.00111433
0.00110839
0.00110563
0.00110581
0.0011116
0.00110991
0.00110793
0.00110162
0.00109109
0.0010768
0.00105954
0.00103965
0.00101759
0.000993283
0.000966662
0.000938222
0.000910966
0.000895541
0.000917092
0.000979352
0.00104088
0.00108846
0.00112344
0.0011454
0.00115636
0.00115468
0.00114813
0.00113862
0.00112837
0.00111837
0.00111007
0.00110435
0.00110144
0.00110093
0.0011052
0.00110341
0.00110164
0.00109596
0.00108614
0.00107268
0.00105625
0.00103728
0.0010162
0.000992961
0.000967467
0.000940403
0.000914797
0.000901222
0.000922479
0.000979198
0.00103598
0.0010808
0.00111408
0.00113539
0.00114622
0.00114515
0.00113964
0.00113131
0.00112209
0.00111296
0.00110528
0.00109977
0.00109675
0.00109569
0.00109874
0.00109636
0.00109475
0.00108968
0.00108058
0.00106801
0.00105247
0.00103446
0.00101442
0.000992275
0.000967943
0.000942255
0.000918244
0.000906266
0.000926711
0.000978157
0.00103041
0.00107259
0.00110426
0.00112496
0.00113567
0.00113516
0.00113062
0.00112341
0.00111515
0.00110686
0.00109974
0.00109445
0.00109128
0.00108976
0.00109178
0.00108843
0.00108702
0.00108261
0.00107427
0.00106257
0.00104807
0.00103112
0.00101218
0.000991182
0.000968086
0.000943778
0.000921306
0.000910658
0.000929825
0.000976119
0.00102406
0.0010637
0.00109382
0.00111393
0.00112448
0.0011245
0.00112089
0.0011147
0.00110734
0.00109984
0.00109325
0.00108816
0.00108482
0.00108286
0.00108393
0.00107936
0.00107826
0.00107455
0.00106706
0.00105632
0.00104288
0.00102716
0.00100943
0.000989671
0.000967918
0.000945046
0.000924058
0.000914455
0.00093191
0.000973143
0.00101693
0.00105405
0.00108266
0.00110217
0.0011125
0.00111301
0.00111023
0.00110499
0.0010985
0.00109174
0.00108561
0.00108067
0.00107714
0.00107475
0.00107491
0.00106891
0.00106827
0.00106538
0.00105886
0.00104919
0.00103695
0.00102254
0.00100618
0.000987813
0.000967593
0.000946316
0.0009268
0.000917977
0.000933204
0.00096958
0.0010093
0.00104385
0.00107091
0.00108971
0.00109973
0.00110064
0.0010986
0.00109425
0.00108858
0.00108251
0.00107679
0.00107193
0.00106814
0.00106524
0.0010645
0.00105693
0.00105696
0.00105505
0.00104965
0.00104123
0.00103042
0.00101755
0.00100274
0.000986186
0.000967973
0.000948445
0.000930657
0.000922515
0.000935348
0.000966798
0.00100238
0.00103413
0.00105942
0.00107723
0.00108673
0.00108786
0.00108637
0.00108272
0.00107774
0.00107223
0.00106682
0.00106193
0.00105776
0.00105425
0.00105263
0.00104377
0.00104475
0.00104409
0.0010401
0.00103336
0.00102451
0.00101383
0.00100153
0.00098751
0.000971823
0.000955148
0.000940056
0.000932787
0.000943177
0.000969605
0.00100056
0.0010288
0.00105158
0.00106765
0.00107598
0.00107693
0.00107553
0.00107215
0.00106744
0.0010621
0.00105665
0.00105143
0.00104661
0.0010423
0.00103973
0.00103282
0.00103558
0.00103694
0.00103554
0.00103199
0.00102688
0.00102045
0.00101273
0.00100359
0.000993031
0.000981527
0.00097103
0.000965869
0.000973723
0.000994397
0.00101898
0.00104163
0.00105981
0.00107222
0.00107789
0.00107761
0.00107517
0.00107084
0.00106522
0.00105892
0.00105233
0.00104575
0.00103932
0.00103336
0.00102923
0.0010569
0.00106336
0.00106952
0.00107433
0.00107819
0.0010816
0.00108409
0.00108518
0.00108471
0.00108258
0.00107885
0.00107495
0.00107278
0.00107714
0.0010889
0.00110293
0.00111556
0.00112565
0.00113129
0.00113219
0.00112908
0.00112415
0.00111747
0.00110948
0.00110066
0.00109122
0.00108152
0.00107166
0.00106204
0.00105436
0.00129963
0.00130862
0.00131722
0.00132561
0.00133387
0.00134235
0.0013479
0.0013502
0.0013501
0.00134794
0.00134377
0.00133963
0.00133477
0.00133148
0.00132962
0.00132926
0.00132997
0.00133224
0.00133285
0.00133276
0.00133291
0.00133341
0.00133335
0.00133214
0.00132957
0.00132552
0.00132025
0.00131368
0.00130634
0.00129905
0.000201833
0.000201953
0.000196184
0.000187943
0.000178264
0.000167861
0.000157096
0.000146335
0.000135732
0.000125946
0.000117621
0.000112123
0.000109872
0.000118552
0.000138918
0.000163813
0.000183012
0.000198886
0.000207065
0.000207062
0.000203782
0.000199364
0.000194326
0.000189423
0.000185053
0.00018146
0.000179229
0.00017781
0.000179161
0.000182019
0.00101835
0.00102286
0.000943118
0.00085719
0.00078387
0.000721236
0.000666938
0.00062083
0.000581228
0.0005499
0.000519486
0.000502533
0.000500728
0.000554964
0.000641064
0.000760746
0.000861735
0.000955463
0.00100193
0.000983552
0.000947837
0.000908386
0.000867356
0.000832582
0.000803303
0.000780318
0.000765854
0.000752371
0.000740353
0.000750264
0.00179956
0.00189223
0.00181044
0.00167898
0.00154735
0.00142622
0.00131734
0.00122373
0.00114362
0.00107723
0.00101264
0.000970137
0.000953481
0.00104377
0.00119751
0.00141812
0.00159887
0.00176092
0.0018553
0.00183803
0.00177669
0.00170542
0.00163106
0.0015668
0.00151113
0.00147125
0.00144752
0.00142989
0.00141112
0.00144338
0.00247609
0.00265635
0.00259885
0.0024526
0.00228325
0.00211468
0.0019572
0.00181961
0.00169692
0.00159562
0.00149983
0.00142998
0.00139844
0.00151643
0.00172012
0.00201447
0.00225562
0.00246171
0.00259671
0.0025957
0.00252181
0.00243175
0.00233694
0.00225536
0.00218632
0.00213777
0.00210855
0.00208474
0.00206534
0.00212592
0.00308465
0.00332358
0.00329469
0.00314716
0.00295576
0.00275218
0.0025558
0.00237992
0.0022214
0.00208795
0.00196563
0.00186977
0.00182667
0.00196334
0.0022014
0.00254306
0.0028259
0.00306043
0.00322607
0.00324988
0.00317436
0.00307694
0.00297308
0.0028848
0.00281119
0.00276026
0.00273112
0.0027081
0.00269271
0.00277836
0.00364286
0.00390625
0.00390492
0.00376096
0.0035576
0.00333017
0.00310497
0.00289564
0.00270903
0.00254895
0.00240498
0.00228589
0.00223536
0.00239043
0.00264209
0.00300892
0.00331666
0.00357204
0.00375913
0.00381163
0.00374363
0.00364803
0.00354432
0.00345569
0.00338487
0.00333603
0.00331031
0.00329499
0.0032872
0.00339132
0.00415775
0.00442021
0.00442985
0.00429814
0.00408953
0.00384722
0.00360041
0.00336775
0.00315813
0.00297649
0.00281509
0.00267611
0.00262253
0.00278502
0.00304324
0.00341845
0.00373844
0.00400643
0.00421178
0.00429276
0.00424014
0.00415383
0.00405743
0.00397467
0.00391017
0.00386667
0.00384696
0.00384063
0.00384226
0.00395906
0.00463149
0.00487677
0.00488948
0.00476577
0.00455552
0.00430436
0.00404382
0.00379468
0.00356775
0.00336951
0.00319364
0.00303833
0.00299391
0.00314663
0.0034058
0.00377755
0.00409954
0.00437173
0.00459605
0.00470264
0.00467278
0.00460169
0.00451765
0.00444533
0.00438953
0.00435436
0.00434277
0.00434613
0.00435818
0.0044823
0.00506321
0.00528104
0.00529024
0.00516911
0.00495911
0.00470409
0.00443581
0.00417608
0.00393731
0.00372704
0.00353925
0.00337412
0.00333978
0.0034763
0.00373159
0.00409095
0.004406
0.00468332
0.00492228
0.00504892
0.0050486
0.00499734
0.00492855
0.00486944
0.00482433
0.00480027
0.00479836
0.00481178
0.0048343
0.00496115
0.00545168
0.00563542
0.00563441
0.00551231
0.00530376
0.00504881
0.0047775
0.00451232
0.00426657
0.00404816
0.00385095
0.00368528
0.00365154
0.00377037
0.00401981
0.00436223
0.00467187
0.00495384
0.00519298
0.0053377
0.00536942
0.00534507
0.005293
0.0052475
0.00521467
0.00520394
0.00521276
0.00523608
0.00526842
0.00539377
0.00579741
0.00594102
0.00592463
0.00579903
0.00559257
0.00534043
0.00507021
0.00480396
0.00455571
0.0043328
0.00413118
0.00396174
0.00392429
0.00402321
0.00427003
0.00459351
0.0048997
0.00516763
0.00541311
0.00557453
0.00562508
0.00563954
0.00561283
0.00558012
0.00555995
0.00556351
0.00558325
0.00561581
0.00565661
0.00577668
0.00609586
0.00619738
0.00616279
0.00603237
0.00582855
0.00558124
0.00531525
0.00505177
0.00480496
0.00457967
0.00437566
0.00420244
0.00415433
0.00423974
0.00447889
0.00478974
0.00508038
0.00534029
0.00558611
0.0057637
0.00583586
0.00587109
0.00588017
0.00586887
0.00585988
0.00587647
0.00590626
0.0059466
0.00599369
0.00610536
0.00634207
0.00640331
0.00635018
0.00621474
0.00601414
0.00577331
0.00551409
0.00525682
0.00501376
0.00479034
0.00458592
0.00440838
0.0043479
0.00442779
0.00465344
0.00495283
0.0052254
0.00547503
0.00571525
0.00590648
0.00599558
0.00605131
0.00608816
0.00610522
0.00611658
0.00614177
0.0061788
0.00622431
0.00627424
0.00637002
0.00653251
0.0065579
0.00648766
0.0063477
0.00615096
0.00591808
0.00566852
0.00541994
0.00518351
0.00496652
0.0047631
0.00457789
0.00450977
0.00458188
0.00478928
0.00506732
0.00532774
0.00557467
0.00580371
0.00600345
0.0061064
0.00618371
0.0062348
0.00628099
0.00631932
0.00636108
0.00640143
0.00644697
0.00649379
0.00656955
0.00666539
0.00666038
0.00657507
0.00643124
0.00623903
0.00601568
0.00577904
0.0055435
0.00531736
0.00510785
0.00490479
0.0047125
0.00463771
0.00469773
0.00488277
0.00513216
0.00537415
0.00561341
0.00583941
0.00605329
0.00616831
0.00626153
0.00633047
0.0063895
0.00645689
0.00652011
0.00657316
0.00661849
0.0066545
0.00670802
0.00674
0.00670917
0.00661398
0.00647159
0.00628679
0.00607584
0.00585257
0.0056339
0.0054226
0.00521153
0.00500132
0.00481211
0.0047332
0.00477808
0.00493169
0.00514751
0.0053655
0.00559232
0.00581119
0.00602754
0.00616168
0.00627908
0.00637093
0.00644414
0.00652726
0.00660668
0.00667949
0.00673294
0.00676655
0.00679499
0.00676901
0.00671591
0.00661583
0.00647702
0.00630104
0.00610526
0.00589811
0.0056895
0.00548062
0.00526455
0.00505274
0.00486624
0.00478187
0.00481209
0.00493492
0.00511505
0.00530479
0.0055127
0.00572207
0.00593961
0.00609339
0.00623143
0.00634519
0.0064427
0.00654203
0.00663221
0.00671215
0.00677597
0.00681691
0.00683711
0.00675778
0.00668635
0.00658409
0.0064507
0.00628276
0.00609402
0.00589505
0.00569279
0.005486
0.00527014
0.00506138
0.00487921
0.00478742
0.00480151
0.00489325
0.00503804
0.00519694
0.00538552
0.00558023
0.005787
0.00595418
0.00612032
0.00626574
0.00638453
0.00649628
0.00659879
0.00669206
0.00676063
0.00680247
0.00682074
0.00670641
0.00661629
0.0065054
0.00636925
0.00620474
0.00602725
0.00584001
0.00564692
0.00544449
0.00523181
0.00502968
0.00485203
0.00475205
0.00474818
0.00480897
0.00491935
0.00504728
0.00521514
0.00539168
0.00558541
0.00575792
0.00593672
0.00610072
0.00624814
0.00638182
0.00649815
0.00660262
0.00668291
0.00673695
0.00676693
0.00655944
0.00646034
0.00635211
0.00622405
0.00607355
0.0059112
0.00573763
0.00555469
0.00535838
0.00515327
0.00496025
0.00478604
0.00467736
0.00465425
0.00468535
0.00476221
0.00486148
0.0050077
0.00516419
0.00534399
0.00551692
0.00570283
0.00587836
0.00603844
0.00618469
0.00631624
0.00643207
0.00652359
0.00658775
0.00663487
0.00633454
0.00623492
0.00613707
0.00602421
0.00589618
0.00575061
0.00559068
0.00541785
0.00523319
0.00503785
0.00485448
0.00468205
0.00456524
0.00452228
0.00452584
0.00457114
0.00464492
0.00476913
0.00490504
0.00507037
0.00524083
0.00543036
0.00561222
0.00578105
0.005935
0.00607318
0.00619465
0.00629148
0.00636313
0.00642125
0.00605027
0.00595997
0.00587548
0.00578581
0.00567799
0.00554772
0.00540241
0.00524491
0.00507215
0.0048872
0.00471095
0.00453949
0.0044162
0.00435402
0.00433323
0.00435155
0.00440416
0.00450463
0.00462032
0.00477087
0.00493746
0.00512732
0.0053128
0.00548462
0.00564199
0.00578366
0.00590808
0.00600818
0.00608044
0.00613973
0.00572244
0.00564869
0.00558418
0.00551345
0.00542041
0.00531008
0.00518185
0.00503711
0.004874
0.00469802
0.00452575
0.00435546
0.00422726
0.004149
0.00410842
0.00410527
0.00414243
0.00421807
0.00431451
0.00445027
0.00461251
0.00479964
0.00498306
0.00515348
0.00531115
0.005454
0.00557922
0.00567992
0.00575364
0.00580811
0.00536438
0.00531472
0.00526723
0.00521189
0.00513578
0.00504066
0.00492527
0.00478943
0.00463227
0.00446163
0.0042906
0.00412208
0.00399122
0.00390372
0.00384975
0.00383207
0.00385597
0.00391391
0.00399488
0.00411289
0.00426812
0.00444578
0.00462376
0.00479343
0.00494967
0.00508877
0.00520926
0.00530951
0.00538499
0.0054381
0.00498704
0.00495814
0.0049278
0.00488484
0.00481839
0.00473169
0.00462199
0.00448866
0.0043328
0.00416357
0.00399287
0.00382844
0.00369853
0.00361428
0.00355541
0.00353251
0.00354906
0.00359135
0.00365734
0.00376163
0.00390582
0.00407562
0.00424913
0.00441731
0.00457331
0.00471093
0.0048287
0.00492271
0.0049901
0.00503529
0.00458521
0.00457314
0.00455282
0.00451395
0.00445016
0.00436348
0.00425236
0.00411615
0.0039603
0.00379356
0.00362851
0.00347584
0.00335803
0.00328567
0.00323641
0.00321946
0.00323022
0.00326409
0.00331839
0.00340785
0.00353372
0.00368713
0.00384833
0.00400867
0.00416067
0.00429729
0.00441412
0.00450614
0.00457088
0.0046127
0.00413777
0.00413449
0.00411421
0.00407087
0.00400355
0.00391516
0.00380622
0.00367756
0.00353382
0.00338428
0.00324173
0.00311667
0.00302499
0.00297244
0.00294367
0.00293651
0.00294688
0.00297391
0.00301761
0.00308611
0.00318281
0.00330751
0.00344136
0.00357796
0.00371234
0.00383752
0.0039478
0.00403772
0.00410302
0.00414694
0.00362535
0.00362548
0.00360627
0.00356659
0.00350968
0.00343976
0.00335761
0.00326255
0.00315757
0.00305044
0.00295122
0.00286784
0.00280786
0.00277564
0.0027615
0.0027595
0.00276738
0.00278758
0.00281557
0.00285821
0.00292092
0.00300925
0.00310041
0.00319406
0.00328856
0.00337832
0.00346029
0.00353039
0.00358346
0.00362216
0.00316637
0.00318077
0.00318016
0.00316544
0.00314053
0.00310831
0.00306793
0.00301809
0.00295756
0.00289001
0.00282537
0.00277376
0.00273353
0.00270845
0.00269311
0.00269116
0.00269919
0.00271409
0.00272996
0.00275211
0.00278143
0.00282197
0.00286852
0.00292222
0.00298099
0.00303598
0.0030866
0.00312968
0.00315151
0.00316182
0.00287956
0.00291101
0.00292807
0.00293225
0.00292868
0.00291892
0.00290252
0.00288036
0.00284807
0.00281324
0.00278136
0.00275494
0.00273283
0.00271843
0.00270948
0.00271155
0.00272018
0.00273377
0.00274586
0.00275758
0.00277167
0.00278937
0.00280998
0.00283158
0.00285178
0.00286702
0.00287597
0.00287808
0.00287648
0.0028755
0.000228943
0.000228566
0.000222363
0.00021365
0.000203279
0.000192011
0.000180288
0.000168619
0.000157245
0.00014718
0.000139141
0.000136773
0.000143872
0.000161676
0.000183394
0.000206767
0.000225487
0.000242144
0.00025028
0.000249048
0.000244588
0.000239055
0.00023302
0.000227203
0.00022199
0.000217599
0.000214434
0.000211711
0.000210576
0.000210042
0.00126911
0.00133963
0.00126388
0.00116608
0.00107691
0.000996746
0.000924792
0.00086172
0.000806763
0.000762842
0.000716013
0.000704745
0.000744764
0.000853983
0.000995081
0.0011575
0.00128583
0.00140407
0.0014638
0.00142476
0.00136037
0.00129014
0.00121956
0.00115945
0.00110948
0.00107002
0.00104066
0.00100766
0.000963948
0.000943446
0.00232743
0.00254553
0.00248738
0.00234075
0.00217865
0.00202009
0.00187281
0.00174333
0.0016321
0.00154263
0.00144821
0.00141275
0.00146878
0.00165916
0.0019074
0.00219539
0.00241277
0.00260967
0.00273784
0.00269017
0.00258107
0.00245468
0.00232687
0.00221668
0.00212647
0.0020566
0.00200551
0.00195058
0.00188756
0.00188854
0.00329539
0.00362924
0.00361011
0.00344786
0.00323565
0.00301321
0.00279893
0.00260879
0.00244621
0.00231259
0.00217508
0.0021202
0.00218376
0.00243049
0.0027459
0.00311352
0.00339139
0.00363478
0.00382015
0.00378494
0.0036532
0.00349313
0.00333012
0.00318959
0.00307656
0.00299155
0.00293098
0.00287265
0.00281295
0.00285462
0.00419073
0.00460995
0.00462266
0.00445467
0.00420805
0.00393649
0.00366826
0.00342686
0.0032203
0.00304749
0.00287688
0.00280464
0.00287619
0.00315359
0.00350553
0.00391807
0.00423398
0.00450804
0.00473593
0.00472543
0.0045881
0.00441276
0.00423294
0.00407893
0.00395757
0.00386929
0.00381126
0.00375961
0.00371211
0.00379645
0.00504233
0.00550983
0.00553402
0.00536109
0.00509024
0.00478221
0.00447313
0.00419078
0.00394752
0.00374254
0.003546
0.0034628
0.00354125
0.00382791
0.00419524
0.00462796
0.00496356
0.00526176
0.00551981
0.0055408
0.00541214
0.00523589
0.00505351
0.00489891
0.00477978
0.00469617
0.00464572
0.00460748
0.00457778
0.00469993
0.00585383
0.0063144
0.0063481
0.0061706
0.00588284
0.00554938
0.00521081
0.00489833
0.00462625
0.00439511
0.00418036
0.00409119
0.00417385
0.00445582
0.0048231
0.00525857
0.00560153
0.00591459
0.00619887
0.00625365
0.00614588
0.00598038
0.00580603
0.00566051
0.00555124
0.00547686
0.00543826
0.00541813
0.00541021
0.00556112
0.00661764
0.00702738
0.00706871
0.00688724
0.006588
0.00623868
0.005881
0.00554799
0.00525583
0.0050057
0.00477729
0.00468458
0.00476993
0.00503849
0.00539476
0.00582077
0.00616211
0.00648077
0.00678973
0.00687932
0.00680378
0.00665813
0.00649851
0.0063688
0.00627463
0.0062129
0.00619072
0.00619104
0.00620799
0.00637778
0.00732446
0.0076713
0.00770321
0.00752563
0.0072138
0.00685121
0.00648381
0.00613913
0.00583489
0.00557141
0.00533298
0.00523997
0.00532766
0.00557583
0.0059138
0.0063216
0.00665332
0.00699137
0.00730327
0.00742021
0.00739342
0.007274
0.00713444
0.00702391
0.0069484
0.00690482
0.00690097
0.00692357
0.00696403
0.00714519
0.00796594
0.00824756
0.00825627
0.0080731
0.00776167
0.0073964
0.00702063
0.00667091
0.00636117
0.00608965
0.00584522
0.00575456
0.00584149
0.00606605
0.00638141
0.00676544
0.00709413
0.00742249
0.00774643
0.00788666
0.00790376
0.00782526
0.00771273
0.00762294
0.00756725
0.00754663
0.00756428
0.0076073
0.0076683
0.00785296
0.00853995
0.00875174
0.00872925
0.00853724
0.00822652
0.00786522
0.0074945
0.00714505
0.0068351
0.0065591
0.00631189
0.00622566
0.00630548
0.00650637
0.00679651
0.00715286
0.00747431
0.00778954
0.00812078
0.00828345
0.00833328
0.00830466
0.00822959
0.00816193
0.00812615
0.00813236
0.00816985
0.0082303
0.00830737
0.00848741
0.00904044
0.00918063
0.00912448
0.00892258
0.00861726
0.00826366
0.00790063
0.00755964
0.0072558
0.00697888
0.00673135
0.0066491
0.00671458
0.00689271
0.00715548
0.00748114
0.00778719
0.00809189
0.00842434
0.00860859
0.00869022
0.00871022
0.00867672
0.0086355
0.00862267
0.00865221
0.00870592
0.00877889
0.00886754
0.00903169
0.00945536
0.0095308
0.00944374
0.0092339
0.00893651
0.00859434
0.00824326
0.00791328
0.00761958
0.00734649
0.00710308
0.00702168
0.00706242
0.00721853
0.00745136
0.00774376
0.00803664
0.00832634
0.00865377
0.00885871
0.00897324
0.00903576
0.00904698
0.00903901
0.00905137
0.00909783
0.00916212
0.00924234
0.00933043
0.00946542
0.00977939
0.00980108
0.0096893
0.00947527
0.00918688
0.00885897
0.00852343
0.00820777
0.00792494
0.00765623
0.00742043
0.00734186
0.00735672
0.00747912
0.00767606
0.00792882
0.00820197
0.00848163
0.00880248
0.00902752
0.0091746
0.00927035
0.00933129
0.00936589
0.00940997
0.00946578
0.00953502
0.00961609
0.009692
0.009797
0.0100127
0.00999376
0.0098628
0.00964825
0.00937144
0.0090598
0.00874249
0.00844333
0.00817344
0.00790448
0.00766728
0.00759761
0.00759631
0.00767335
0.00782334
0.00803154
0.00827715
0.00854658
0.00885458
0.00910056
0.00928131
0.00941343
0.00952165
0.00960771
0.00968585
0.00976098
0.00983023
0.00990155
0.00996505
0.0100378
0.0101588
0.0101081
0.00996395
0.00975345
0.00949179
0.00919846
0.00890201
0.00861849
0.00835589
0.00808887
0.00784727
0.00776683
0.00774478
0.00778632
0.0078884
0.00804542
0.00825948
0.00851662
0.00880579
0.00907212
0.00928567
0.00946357
0.00962218
0.00975695
0.00986717
0.00996523
0.0100496
0.010118
0.0101664
0.0102043
0.0102319
0.0101513
0.0099986
0.00979271
0.00954834
0.0092743
0.00899403
0.00872323
0.00846761
0.00820418
0.00796058
0.00786299
0.00781182
0.00781489
0.00786875
0.00797648
0.0081519
0.0083907
0.00865858
0.00894077
0.00919878
0.00943312
0.00963173
0.0098025
0.00994895
0.0100718
0.0101714
0.01025
0.0103015
0.0103183
0.0102448
0.0101348
0.00997308
0.00977064
0.00953433
0.00927796
0.00901393
0.00875524
0.00850559
0.00824471
0.00800338
0.00788223
0.00779857
0.00775969
0.00776363
0.00782155
0.00795684
0.00817011
0.00841788
0.00870429
0.00897823
0.00925045
0.00950151
0.00972675
0.00991031
0.0100597
0.0101812
0.0102742
0.0103328
0.0103527
0.0101872
0.0100448
0.00987562
0.00967847
0.00945103
0.00920899
0.00895951
0.00871159
0.00846636
0.00820678
0.00796875
0.00782163
0.00770263
0.00761978
0.00757382
0.00758054
0.00767796
0.00785912
0.00808755
0.00837312
0.00865654
0.00895849
0.00923941
0.00949748
0.00972969
0.00992417
0.0100752
0.0101887
0.0102609
0.0102945
0.0100306
0.00987071
0.00970174
0.00951128
0.00929191
0.009064
0.00882731
0.00858819
0.00834554
0.008086
0.00784868
0.00767849
0.00752211
0.0073953
0.00730173
0.00726024
0.00732015
0.00746557
0.00767301
0.00795327
0.00824353
0.00856587
0.00887444
0.00916121
0.00942238
0.00964926
0.00984295
0.00999091
0.0100883
0.0101411
0.00975541
0.00959778
0.00944397
0.0092577
0.00905367
0.00883795
0.00861226
0.00837955
0.00813751
0.00787698
0.00763753
0.00744644
0.00725558
0.0070875
0.00695116
0.00686667
0.00689066
0.00699904
0.00718278
0.00745238
0.00774681
0.00808161
0.00841437
0.0087241
0.00900885
0.00926438
0.0094883
0.00966574
0.00979181
0.0098757
0.00936756
0.00923778
0.00908988
0.00891787
0.00872798
0.00852433
0.0083075
0.00807861
0.00783505
0.00757323
0.00732901
0.00711752
0.00690266
0.00669888
0.00652745
0.00640797
0.00639867
0.00647103
0.00662834
0.0068808
0.00717648
0.00751537
0.00786431
0.00818811
0.00848874
0.00876753
0.00901852
0.0092277
0.00938612
0.00949569
0.00888185
0.0087751
0.00864022
0.00848348
0.00830771
0.00811499
0.00790457
0.00767665
0.00742998
0.00716756
0.00691714
0.00668774
0.00646155
0.00623383
0.00603841
0.00589506
0.00585497
0.00589556
0.00602545
0.00625339
0.00654341
0.00687908
0.00723045
0.0075638
0.00787966
0.00816865
0.00842988
0.00866274
0.00885277
0.00898776
0.00828001
0.00820472
0.00808561
0.00794685
0.00778459
0.00760025
0.00739366
0.00716541
0.00691632
0.00665413
0.00640035
0.00616216
0.00593195
0.00570283
0.00549704
0.00534158
0.00527627
0.00529168
0.00539448
0.0055916
0.00586228
0.00618699
0.00653933
0.00688248
0.00720747
0.00750729
0.00777443
0.00800984
0.00820655
0.00835179
0.00757614
0.00752037
0.00742313
0.00729894
0.00714682
0.00696913
0.00676636
0.00654048
0.00629435
0.00603894
0.00579114
0.0055579
0.00533829
0.00512501
0.00492817
0.004772
0.0046884
0.00468628
0.00477209
0.00493162
0.00516027
0.00545994
0.00579574
0.00613615
0.00645896
0.00676011
0.00702723
0.00726786
0.00747034
0.00761817
0.00675788
0.00672293
0.00664328
0.00653253
0.00639094
0.0062242
0.00603313
0.00582107
0.00559207
0.00535826
0.00513329
0.0049232
0.00473033
0.0045481
0.00437686
0.00422739
0.00415746
0.00416209
0.00423517
0.00435895
0.00453059
0.00475454
0.00503615
0.00535362
0.00565471
0.00594169
0.00619776
0.00642917
0.00662393
0.00676866
0.00584279
0.00582523
0.0057644
0.00567447
0.00555517
0.00541518
0.00525537
0.0050789
0.00488855
0.00469665
0.0045138
0.0043433
0.00418744
0.00404185
0.00390218
0.00379515
0.00375507
0.00376375
0.00382094
0.00391283
0.00403453
0.00419013
0.00437608
0.00459266
0.00485093
0.00510584
0.00532806
0.00552999
0.00569944
0.00583151
0.00492741
0.00492721
0.0048958
0.00484242
0.00476452
0.00467115
0.00456217
0.00443899
0.00430079
0.00416072
0.00402724
0.00389806
0.00377204
0.00366652
0.00357489
0.00350252
0.00347871
0.00349261
0.00353634
0.00359832
0.00368115
0.00378672
0.00390661
0.00403015
0.00417537
0.00433983
0.00451761
0.00468401