/*--------------------------------*- C++ -*----------------------------------*\
| =========                 |                                                 |
| \\      /  F ield         | OpenFOAM: The Open Source CFD Toolbox           |
|  \\    /   O peration     | Version:  5.0                                   |
|   \\  /    A nd           | Web:      www.OpenFOAM.org                      |
|    \\/     M anipulation  |                                                 |
\*---------------------------------------------------------------------------*/
FoamFile
{
    version     2.0;
    format      ascii;
    class       volScalarField;
    location    "900/porous";
    object      T;
}
// * * * * * * * * * * * * * * * * * * * * * * * * * * * * * * * * * * * * * //

dimensions      [0 0 0 1 0 0 0];

internalField   nonuniform List<scalar> 
36000
(
400
400
400
400
399.999
399.58
399.202
398.851
398.518
398.197
397.885
397.579
397.278
396.981
396.688
396.398
396.112
395.829
395.548
395.272
394.998
394.725
394.45
394.173
393.895
393.618
393.343
393.07
392.8
392.534
392.272
392.016
391.766
391.525
391.303
391.827
392.182
392.451
392.671
392.857
400
400
400
400
399.999
399.63
399.297
398.99
398.702
398.426
398.16
397.902
397.65
397.403
397.161
396.924
396.69
396.46
396.234
396.012
395.793
395.575
395.356
395.135
394.914
394.693
394.475
394.259
394.046
393.836
393.63
393.429
393.233
393.045
392.867
393.211
393.454
393.64
393.789
393.92
400
400
400
400
399.999
399.636
399.312
399.014
398.736
398.473
398.221
397.977
397.741
397.512
397.288
397.07
396.857
396.648
396.445
396.245
396.05
395.856
395.661
395.465
395.269
395.075
394.882
394.692
394.506
394.323
394.144
393.97
393.802
393.641
393.49
393.807
394.034
394.209
394.35
394.471
400
400
400
400
399.999
399.635
399.311
399.014
398.738
398.476
398.227
397.986
397.754
397.529
397.31
397.097
396.89
396.688
396.491
396.3
396.112
395.926
395.739
395.55
395.363
395.176
394.992
394.811
394.634
394.46
394.29
394.126
393.968
393.817
393.676
393.987
394.212
394.386
394.528
394.648
400
400
400
400
399.999
399.635
399.311
399.014
398.738
398.477
398.227
397.988
397.756
397.532
397.315
397.104
396.898
396.698
396.504
396.316
396.131
395.948
395.762
395.576
395.39
395.207
395.025
394.847
394.672
394.501
394.335
394.174
394.019
393.871
393.734
394.044
394.268
394.442
394.584
394.704
400
400
400
400
399.999
399.634
399.309
399.012
398.736
398.474
398.225
397.985
397.754
397.53
397.313
397.103
396.898
396.699
396.506
396.318
396.135
395.952
395.767
395.58
395.395
395.212
395.032
394.854
394.68
394.51
394.344
394.184
394.03
393.884
393.747
394.057
394.281
394.455
394.597
394.717
400
400
400
400
399.999
399.634
399.309
399.012
398.736
398.474
398.225
397.986
397.755
397.532
397.316
397.105
396.901
396.703
396.511
396.324
396.14
395.957
395.772
395.586
395.401
395.219
395.039
394.861
394.687
394.517
394.352
394.192
394.038
393.892
393.755
394.065
394.289
394.463
394.604
394.724
400
400
400
400
399.999
399.634
399.309
399.012
398.736
398.474
398.225
397.986
397.756
397.533
397.318
397.108
396.904
396.707
396.514
396.327
396.142
395.958
395.773
395.588
395.403
395.221
395.042
394.864
394.69
394.52
394.355
394.195
394.041
393.894
393.757
394.067
394.291
394.464
394.606
394.726
400
400
400
400
399.999
399.634
399.309
399.013
398.737
398.476
398.228
397.989
397.76
397.538
397.323
397.114
396.912
396.714
396.522
396.332
396.145
395.961
395.777
395.592
395.408
395.227
395.047
394.87
394.697
394.526
394.361
394.2
394.046
393.9
393.762
394.071
394.295
394.469
394.61
394.73
400
400
400
400
399.999
399.634
399.31
399.014
398.739
398.478
398.23
397.992
397.764
397.543
397.329
397.122
396.919
396.722
396.527
396.335
396.145
395.96
395.776
395.593
395.41
395.229
395.05
394.874
394.7
394.53
394.364
394.204
394.049
393.902
393.763
394.073
394.296
394.47
394.611
394.731
400
400
400
400
399.999
399.636
399.312
399.017
398.742
398.482
398.234
397.997
397.77
397.55
397.338
397.131
396.93
396.731
396.532
396.338
396.147
395.959
395.775
395.594
395.413
395.233
395.055
394.879
394.705
394.535
394.369
394.208
394.054
393.905
393.765
394.075
394.299
394.472
394.613
394.733
400
400
400
400
399.999
399.636
399.313
399.019
398.744
398.485
398.237
398.001
397.774
397.555
397.344
397.139
396.938
396.736
396.535
396.34
396.148
395.958
395.774
395.594
395.415
395.236
395.059
394.883
394.71
394.54
394.374
394.212
394.057
393.908
393.767
394.076
394.3
394.473
394.615
394.734
400
400
400
400
399.999
399.637
399.316
399.022
398.747
398.488
398.241
398.005
397.778
397.56
397.35
397.146
396.944
396.74
396.54
396.344
396.152
395.962
395.777
395.598
395.421
395.243
395.066
394.891
394.718
394.547
394.381
394.219
394.063
393.912
393.769
394.079
394.303
394.476
394.618
394.737
400
400
400
400
399.999
399.639
399.318
399.024
398.75
398.491
398.244
398.007
397.78
397.562
397.352
397.148
396.945
396.742
396.542
396.346
396.154
395.965
395.78
395.601
395.425
395.249
395.073
394.898
394.725
394.554
394.387
394.225
394.068
393.916
393.77
394.081
394.305
394.479
394.62
394.739
400
400
400
400
399.999
399.639
399.319
399.026
398.752
398.493
398.245
398.008
397.781
397.562
397.352
397.147
396.945
396.742
396.542
396.346
396.154
395.965
395.781
395.603
395.428
395.253
395.078
394.903
394.73
394.56
394.393
394.23
394.072
393.919
393.772
394.083
394.307
394.48
394.622
394.741
400
400
400
400
399.999
399.642
399.323
399.03
398.756
398.496
398.248
398.01
397.782
397.562
397.35
397.145
396.942
396.74
396.54
396.344
396.152
395.964
395.78
395.602
395.429
395.255
395.081
394.907
394.734
394.563
394.396
394.232
394.073
393.918
393.768
394.08
394.305
394.478
394.62
394.74
400
400
400
400
399.999
399.643
399.324
399.032
398.758
398.498
398.249
398.011
397.781
397.56
397.347
397.141
396.938
396.736
396.536
396.341
396.149
395.96
395.776
395.599
395.426
395.253
395.08
394.906
394.733
394.562
394.394
394.23
394.07
393.914
393.764
394.076
394.301
394.475
394.617
394.737
400
400
400
400
399.999
399.644
399.327
399.034
398.76
398.499
398.25
398.011
397.781
397.559
397.344
397.137
396.934
396.732
396.532
396.337
396.146
395.957
395.773
395.596
395.423
395.25
395.077
394.903
394.73
394.559
394.391
394.226
394.066
393.909
393.758
394.07
394.296
394.47
394.612
394.733
400
400
400
400
399.999
399.646
399.329
399.037
398.762
398.501
398.252
398.012
397.781
397.557
397.342
397.133
396.93
396.729
396.529
396.335
396.143
395.954
395.772
395.595
395.42
395.246
395.072
394.898
394.725
394.554
394.386
394.221
394.059
393.902
393.749
394.062
394.289
394.464
394.606
394.727
400
400
400
400
399.999
399.647
399.33
399.038
398.763
398.502
398.252
398.012
397.78
397.556
397.339
397.129
396.926
396.727
396.529
396.336
396.145
395.958
395.776
395.598
395.421
395.245
395.07
394.895
394.722
394.55
394.382
394.216
394.054
393.896
393.743
394.058
394.285
394.46
394.602
394.723
400
400
400
400
399.999
399.648
399.332
399.04
398.765
398.504
398.253
398.012
397.78
397.555
397.337
397.126
396.922
396.724
396.529
396.338
396.149
395.964
395.782
395.601
395.422
395.243
395.067
394.891
394.718
394.546
394.376
394.211
394.048
393.89
393.736
394.051
394.278
394.454
394.597
394.718
400
400
400
400
399.999
399.649
399.333
399.041
398.766
398.505
398.254
398.013
397.78
397.554
397.336
397.124
396.92
396.722
396.53
396.341
396.154
395.969
395.786
395.603
395.422
395.243
395.065
394.889
394.714
394.542
394.373
394.207
394.044
393.885
393.731
394.047
394.275
394.451
394.594
394.716
400
400
400
400
399.999
399.65
399.334
399.042
398.767
398.505
398.254
398.013
397.779
397.553
397.334
397.122
396.917
396.719
396.528
396.341
396.155
395.97
395.785
395.602
395.419
395.239
395.06
394.883
394.708
394.536
394.366
394.2
394.037
393.878
393.724
394.04
394.269
394.445
394.589
394.711
400
400
400
400
399.999
399.651
399.335
399.043
398.768
398.507
398.256
398.014
397.78
397.554
397.335
397.122
396.917
396.719
396.529
396.343
396.157
395.971
395.786
395.601
395.418
395.237
395.058
394.881
394.706
394.533
394.363
394.197
394.034
393.875
393.721
394.037
394.266
394.443
394.587
394.708
400
400
400
400
399.999
399.651
399.336
399.044
398.769
398.507
398.256
398.014
397.78
397.553
397.334
397.121
396.915
396.718
396.527
396.341
396.154
395.967
395.781
395.596
395.412
395.231
395.051
394.874
394.698
394.526
394.356
394.189
394.026
393.867
393.713
394.03
394.258
394.435
394.579
394.701
400
400
400
400
399.999
399.652
399.337
399.045
398.77
398.509
398.258
398.016
397.782
397.555
397.335
397.122
396.916
396.719
396.528
396.34
396.152
395.964
395.777
395.591
395.407
395.225
395.044
394.866
394.69
394.517
394.346
394.179
394.015
393.855
393.7
394.017
394.246
394.423
394.567
394.688
400
400
400
400
399.999
399.652
399.336
399.044
398.769
398.507
398.256
398.013
397.778
397.55
397.329
397.115
396.907
396.708
396.514
396.324
396.133
395.942
395.753
395.565
395.378
395.194
395.011
394.83
394.652
394.476
394.302
394.132
393.965
393.802
393.644
393.963
394.192
394.369
394.512
394.634
400
400
400
400
399.999
399.652
399.336
399.042
398.766
398.502
398.248
398.002
397.763
397.531
397.305
397.085
396.873
396.667
396.466
396.267
396.069
395.871
395.674
395.478
395.284
395.091
394.9
394.711
394.524
394.339
394.157
393.977
393.801
393.628
393.461
393.785
394.016
394.194
394.336
394.459
400
400
400
400
399.999
399.644
399.319
399.016
398.728
398.452
398.184
397.923
397.669
397.419
397.175
396.936
396.703
396.476
396.253
396.031
395.81
395.588
395.367
395.147
394.927
394.71
394.493
394.278
394.065
393.854
393.645
393.438
393.235
393.035
392.841
393.193
393.439
393.627
393.778
393.91
400
400
400
400
399.999
399.595
399.224
398.876
398.543
398.221
397.906
397.597
397.293
396.993
396.698
396.407
396.122
395.842
395.565
395.29
395.013
394.736
394.46
394.184
393.91
393.636
393.363
393.092
392.823
392.556
392.291
392.029
391.77
391.516
391.273
391.806
392.165
392.437
392.659
392.846
400
400
400
400
399.999
399.777
399.525
399.256
398.978
398.695
398.41
398.125
397.84
397.556
397.273
396.991
396.711
396.433
396.157
395.883
395.611
395.34
395.069
394.795
394.521
394.247
393.974
393.702
393.432
393.165
392.901
392.642
392.388
392.142
391.908
392.155
392.391
392.602
392.788
392.951
400
400
400
400
400
399.809
399.596
399.37
399.138
398.903
398.668
398.433
398.2
397.968
397.738
397.511
397.286
397.064
396.844
396.626
396.411
396.197
395.984
395.769
395.554
395.34
395.126
394.914
394.704
394.496
394.291
394.089
393.892
393.7
393.515
393.63
393.751
393.868
393.975
394.076
400
400
400
400
400
399.813
399.607
399.389
399.168
398.944
398.722
398.502
398.284
398.069
397.857
397.649
397.444
397.243
397.044
396.849
396.658
396.468
396.279
396.089
395.899
395.71
395.523
395.337
395.153
394.972
394.794
394.62
394.45
394.285
394.128
394.23
394.338
394.444
394.542
394.634
400
400
400
400
400
399.812
399.606
399.389
399.168
398.947
398.727
398.509
398.295
398.084
397.877
397.674
397.475
397.279
397.087
396.9
396.716
396.534
396.352
396.17
395.988
395.807
395.628
395.451
395.276
395.104
394.936
394.771
394.61
394.456
394.308
394.408
394.516
394.621
394.718
394.809
400
400
400
400
400
399.812
399.606
399.389
399.168
398.947
398.728
398.511
398.297
398.087
397.881
397.68
397.482
397.288
397.099
396.914
396.732
396.553
396.373
396.193
396.014
395.836
395.66
395.485
395.313
395.144
394.978
394.817
394.66
394.508
394.364
394.464
394.572
394.676
394.775
394.865
400
400
400
400
400
399.812
399.604
399.387
399.166
398.944
398.724
398.507
398.294
398.084
397.879
397.677
397.48
397.287
397.098
396.914
396.734
396.555
396.376
396.196
396.018
395.84
395.665
395.491
395.32
395.152
394.987
394.826
394.67
394.519
394.376
394.477
394.584
394.689
394.787
394.878
400
400
400
400
400
399.811
399.604
399.387
399.166
398.944
398.725
398.508
398.294
398.085
397.88
397.679
397.482
397.29
397.102
396.918
396.738
396.559
396.38
396.201
396.023
395.846
395.671
395.497
395.326
395.158
394.993
394.833
394.677
394.527
394.383
394.484
394.592
394.696
394.795
394.886
400
400
400
400
400
399.811
399.604
399.387
399.165
398.944
398.724
398.507
398.294
398.085
397.88
397.68
397.483
397.291
397.104
396.92
396.739
396.56
396.381
396.202
396.024
395.847
395.672
395.499
395.328
395.16
394.995
394.835
394.679
394.528
394.385
394.485
394.593
394.698
394.796
394.887
400
400
400
400
400
399.811
399.604
399.387
399.166
398.945
398.725
398.509
398.297
398.088
397.884
397.684
397.489
397.297
397.11
396.925
396.743
396.563
396.384
396.205
396.028
395.851
395.677
395.504
395.333
395.165
395
394.84
394.684
394.533
394.389
394.49
394.597
394.702
394.8
394.891
400
400
400
400
400
399.811
399.604
399.388
399.167
398.946
398.727
398.511
398.299
398.091
397.888
397.689
397.494
397.303
397.114
396.928
396.744
396.563
396.384
396.206
396.029
395.853
395.678
395.506
395.335
395.167
395.003
394.842
394.686
394.535
394.39
394.491
394.598
394.703
394.801
394.892
400
400
400
400
400
399.812
399.606
399.389
399.169
398.948
398.729
398.514
398.303
398.096
397.894
397.696
397.502
397.31
397.12
396.932
396.747
396.564
396.385
396.207
396.031
395.856
395.682
395.51
395.339
395.172
395.007
394.846
394.69
394.539
394.393
394.493
394.601
394.705
394.803
394.894
400
400
400
400
400
399.812
399.606
399.39
399.17
398.95
398.731
398.516
398.306
398.1
397.899
397.702
397.508
397.315
397.123
396.935
396.749
396.565
396.384
396.207
396.032
395.858
395.684
395.513
395.343
395.175
395.011
394.849
394.693
394.541
394.395
394.495
394.602
394.706
394.804
394.895
400
400
400
400
400
399.813
399.607
399.392
399.172
398.952
398.734
398.519
398.309
398.103
397.903
397.707
397.513
397.319
397.127
396.939
396.752
396.568
396.388
396.211
396.036
395.863
395.69
395.519
395.349
395.182
395.017
394.856
394.699
394.546
394.398
394.498
394.605
394.71
394.807
394.898
400
400
400
400
400
399.814
399.609
399.393
399.174
398.954
398.736
398.521
398.311
398.105
397.905
397.709
397.515
397.321
397.129
396.94
396.754
396.57
396.39
396.213
396.04
395.867
395.695
395.524
395.355
395.187
395.023
394.861
394.703
394.55
394.401
394.5
394.608
394.712
394.81
394.9
400
400
400
400
400
399.814
399.609
399.395
399.175
398.956
398.738
398.523
398.312
398.106
397.905
397.708
397.514
397.321
397.129
396.94
396.754
396.571
396.39
396.214
396.041
395.87
395.699
395.528
395.359
395.192
395.027
394.865
394.707
394.553
394.403
394.503
394.61
394.714
394.812
394.902
400
400
400
400
400
399.815
399.612
399.397
399.178
398.959
398.74
398.525
398.313
398.106
397.905
397.707
397.513
397.319
397.128
396.939
396.753
396.569
396.389
396.214
396.041
395.871
395.7
395.531
395.362
395.195
395.03
394.868
394.709
394.553
394.401
394.501
394.608
394.712
394.81
394.901
400
400
400
400
400
399.816
399.612
399.398
399.18
398.96
398.741
398.525
398.313
398.106
397.903
397.705
397.51
397.316
397.125
396.936
396.75
396.566
396.386
396.211
396.039
395.868
395.699
395.529
395.361
395.193
395.028
394.866
394.707
394.55
394.398
394.498
394.605
394.709
394.807
394.898
400
400
400
400
400
399.817
399.614
399.4
399.181
398.961
398.742
398.526
398.314
398.105
397.902
397.703
397.507
397.313
397.122
396.933
396.747
396.563
396.383
396.208
396.036
395.866
395.696
395.527
395.358
395.191
395.026
394.863
394.703
394.547
394.393
394.493
394.6
394.705
394.803
394.894
400
400
400
400
400
399.818
399.615
399.402
399.183
398.963
398.744
398.527
398.314
398.105
397.9
397.7
397.505
397.311
397.119
396.931
396.745
396.561
396.382
396.207
396.034
395.863
395.693
395.523
395.354
395.187
395.021
394.858
394.698
394.54
394.386
394.486
394.594
394.699
394.797
394.888
400
400
400
400
400
399.818
399.616
399.403
399.184
398.964
398.745
398.528
398.314
398.105
397.9
397.699
397.502
397.31
397.119
396.931
396.746
396.564
396.385
396.21
396.036
395.863
395.692
395.522
395.353
395.185
395.019
394.855
394.695
394.537
394.382
394.483
394.59
394.695
394.794
394.885
400
400
400
400
400
399.819
399.617
399.404
399.186
398.965
398.746
398.529
398.315
398.104
397.898
397.697
397.5
397.307
397.118
396.932
396.748
396.567
396.389
396.212
396.037
395.863
395.691
395.52
395.35
395.182
395.015
394.851
394.69
394.532
394.377
394.477
394.585
394.69
394.789
394.881
400
400
400
400
400
399.819
399.618
399.405
399.187
398.967
398.747
398.53
398.316
398.105
397.899
397.697
397.499
397.307
397.119
396.934
396.752
396.571
396.393
396.216
396.039
395.865
395.691
395.519
395.349
395.18
395.013
394.849
394.688
394.529
394.374
394.474
394.582
394.688
394.786
394.878
400
400
400
400
400
399.82
399.619
399.406
399.188
398.967
398.748
398.53
398.315
398.105
397.898
397.695
397.497
397.305
397.117
396.934
396.752
396.572
396.393
396.215
396.038
395.862
395.688
395.516
395.344
395.175
395.008
394.844
394.682
394.523
394.368
394.468
394.577
394.682
394.781
394.873
400
400
400
400
400
399.82
399.62
399.407
399.189
398.969
398.75
398.532
398.318
398.107
397.9
397.697
397.499
397.306
397.119
396.936
396.755
396.574
396.394
396.216
396.038
395.862
395.688
395.515
395.343
395.174
395.007
394.842
394.68
394.521
394.366
394.466
394.575
394.681
394.78
394.872
400
400
400
400
400
399.82
399.62
399.408
399.189
398.969
398.75
398.532
398.317
398.106
397.899
397.696
397.498
397.305
397.118
396.934
396.752
396.571
396.391
396.212
396.034
395.857
395.682
395.509
395.337
395.168
395
394.835
394.673
394.514
394.358
394.459
394.567
394.673
394.772
394.864
400
400
400
400
400
399.821
399.621
399.409
399.191
398.972
398.753
398.535
398.32
398.109
397.902
397.698
397.5
397.307
397.119
396.935
396.752
396.57
396.389
396.209
396.03
395.853
395.677
395.503
395.331
395.16
394.992
394.826
394.663
394.503
394.347
394.448
394.556
394.662
394.761
394.852
400
400
400
400
400
399.821
399.621
399.408
399.19
398.97
398.751
398.533
398.317
398.105
397.896
397.692
397.492
397.297
397.107
396.921
396.735
396.55
396.367
396.184
396.003
395.824
395.645
395.468
395.293
395.12
394.949
394.781
394.615
394.452
394.292
394.393
394.501
394.607
394.706
394.797
400
400
400
400
400
399.821
399.62
399.407
399.188
398.966
398.744
398.523
398.304
398.087
397.874
397.665
397.46
397.259
397.063
396.869
396.676
396.484
396.293
396.102
395.913
395.725
395.539
395.354
395.17
394.988
394.808
394.63
394.455
394.283
394.114
394.216
394.325
394.432
394.531
394.623
400
400
400
400
400
399.816
399.609
399.387
399.157
398.923
398.688
398.452
398.217
397.984
397.753
397.524
397.299
397.078
396.86
396.643
396.427
396.211
395.996
395.781
395.567
395.354
395.142
394.931
394.721
394.513
394.306
394.101
393.899
393.699
393.503
393.618
393.74
393.858
393.966
394.067
400
400
400
400
399.999
399.785
399.539
399.273
398.997
398.715
398.429
398.142
397.855
397.569
397.284
397.001
396.721
396.445
396.171
395.899
395.626
395.353
395.079
394.806
394.534
394.262
393.991
393.721
393.453
393.185
392.92
392.657
392.397
392.14
391.891
392.139
392.377
392.589
392.777
392.941
400
400
400
400
400
399.86
399.7
399.521
399.326
399.117
398.898
398.669
398.434
398.193
397.948
397.699
397.448
397.195
396.94
396.686
396.43
396.175
395.917
395.658
395.397
395.135
394.872
394.61
394.349
394.088
393.83
393.574
393.322
393.075
392.837
392.91
393.004
393.108
393.214
393.312
400
400
400
400
400
399.88
399.745
399.598
399.44
399.272
399.098
398.917
398.732
398.543
398.352
398.159
397.964
397.769
397.574
397.378
397.183
396.987
396.791
396.594
396.395
396.197
395.998
395.799
395.602
395.405
395.21
395.017
394.826
394.639
394.457
394.457
394.472
394.497
394.529
394.564
400
400
400
400
400
399.883
399.752
399.611
399.46
399.302
399.139
398.971
398.8
398.626
398.452
398.277
398.101
397.926
397.751
397.577
397.405
397.233
397.06
396.887
396.714
396.54
396.368
396.195
396.024
395.854
395.686
395.521
395.358
395.198
395.043
395.045
395.058
395.079
395.106
395.136
400
400
400
400
400
399.882
399.752
399.611
399.461
399.304
399.143
398.977
398.809
398.639
398.469
398.298
398.127
397.958
397.789
397.622
397.456
397.291
397.126
396.961
396.795
396.63
396.465
396.301
396.139
395.978
395.819
395.663
395.509
395.359
395.213
395.218
395.233
395.255
395.283
395.315
400
400
400
400
400
399.882
399.752
399.611
399.461
399.305
399.143
398.978
398.811
398.642
398.473
398.303
398.134
397.966
397.799
397.634
397.471
397.308
397.146
396.982
396.819
396.656
396.495
396.334
396.174
396.016
395.86
395.707
395.556
395.409
395.267
395.273
395.288
395.312
395.34
395.373
400
400
400
400
400
399.882
399.751
399.61
399.46
399.303
399.141
398.976
398.808
398.639
398.47
398.3
398.132
397.964
397.798
397.633
397.471
397.309
397.146
396.984
396.821
396.659
396.498
396.338
396.179
396.022
395.867
395.714
395.564
395.419
395.277
395.284
395.3
395.323
395.352
395.385
400
400
400
400
400
399.882
399.751
399.61
399.459
399.303
399.141
398.976
398.808
398.64
398.47
398.301
398.133
397.966
397.8
397.636
397.474
397.312
397.15
396.987
396.825
396.663
396.503
396.343
396.184
396.027
395.872
395.72
395.571
395.425
395.284
395.29
395.307
395.33
395.359
395.392
400
400
400
400
400
399.882
399.751
399.609
399.459
399.302
399.14
398.975
398.807
398.639
398.47
398.301
398.133
397.966
397.8
397.636
397.474
397.311
397.149
396.987
396.825
396.663
396.502
396.343
396.184
396.027
395.873
395.72
395.571
395.426
395.284
395.291
395.307
395.331
395.359
395.393
400
400
400
400
400
399.882
399.751
399.61
399.46
399.303
399.141
398.976
398.809
398.641
398.472
398.304
398.136
397.97
397.805
397.64
397.477
397.314
397.152
396.99
396.828
396.667
396.506
396.347
396.188
396.032
395.877
395.724
395.575
395.43
395.288
395.294
395.311
395.334
395.363
395.396
400
400
400
400
400
399.882
399.751
399.61
399.46
399.303
399.142
398.977
398.81
398.643
398.474
398.307
398.14
397.973
397.807
397.642
397.478
397.315
397.152
396.99
396.828
396.667
396.507
396.348
396.189
396.033
395.878
395.726
395.576
395.43
395.289
395.295
395.311
395.335
395.363
395.397
400
400
400
400
400
399.882
399.752
399.611
399.461
399.305
399.144
398.979
398.813
398.646
398.479
398.312
398.145
397.979
397.812
397.646
397.481
397.317
397.154
396.992
396.831
396.67
396.51
396.351
396.193
396.036
395.881
395.729
395.58
395.434
395.291
395.297
395.313
395.337
395.366
395.399
400
400
400
400
400
399.882
399.752
399.612
399.462
399.306
399.145
398.981
398.815
398.648
398.482
398.315
398.149
397.982
397.815
397.648
397.482
397.317
397.154
396.992
396.832
396.671
396.511
396.353
396.195
396.038
395.884
395.731
395.582
395.435
395.293
395.299
395.314
395.338
395.367
395.4
400
400
400
400
400
399.883
399.753
399.613
399.463
399.308
399.147
398.983
398.817
398.651
398.485
398.319
398.153
397.985
397.818
397.651
397.486
397.321
397.157
396.996
396.835
396.675
396.516
396.357
396.2
396.044
395.889
395.737
395.587
395.44
395.296
395.302
395.318
395.341
395.37
395.403
400
400
400
400
400
399.883
399.754
399.614
399.465
399.309
399.148
398.984
398.818
398.652
398.486
398.32
398.154
397.987
397.819
397.653
397.487
397.322
397.159
396.997
396.837
396.678
396.519
396.361
396.204
396.048
395.893
395.741
395.591
395.443
395.299
395.305
395.32
395.343
395.372
395.405
400
400
400
400
400
399.884
399.754
399.614
399.466
399.31
399.149
398.985
398.819
398.653
398.486
398.32
398.154
397.987
397.819
397.653
397.487
397.322
397.159
396.998
396.839
396.68
396.522
396.364
396.207
396.051
395.897
395.744
395.594
395.446
395.301
395.307
395.322
395.346
395.374
395.407
400
400
400
400
400
399.884
399.756
399.616
399.467
399.312
399.151
398.987
398.821
398.654
398.487
398.32
398.154
397.986
397.819
397.652
397.486
397.322
397.158
396.997
396.839
396.68
396.523
396.365
396.208
396.053
395.898
395.746
395.595
395.447
395.3
395.306
395.322
395.345
395.373
395.406
400
400
400
400
400
399.885
399.756
399.617
399.468
399.313
399.152
398.987
398.821
398.653
398.486
398.319
398.152
397.984
397.817
397.65
397.484
397.319
397.156
396.995
396.836
396.678
396.521
396.364
396.207
396.051
395.897
395.744
395.593
395.444
395.298
395.304
395.319
395.342
395.37
395.404
400
400
400
400
400
399.885
399.757
399.618
399.469
399.314
399.153
398.988
398.821
398.654
398.485
398.318
398.15
397.983
397.815
397.648
397.482
397.317
397.154
396.993
396.834
396.676
396.519
396.362
396.205
396.049
395.895
395.742
395.591
395.442
395.295
395.3
395.316
395.339
395.367
395.4
400
400
400
400
400
399.886
399.758
399.619
399.471
399.315
399.154
398.989
398.822
398.654
398.485
398.317
398.149
397.981
397.813
397.647
397.481
397.316
397.153
396.992
396.833
396.674
396.516
396.359
396.202
396.046
395.891
395.738
395.587
395.437
395.289
395.295
395.311
395.334
395.362
395.395
400
400
400
400
400
399.886
399.759
399.62
399.471
399.316
399.155
398.99
398.823
398.654
398.485
398.316
398.148
397.981
397.814
397.647
397.482
397.318
397.155
396.994
396.835
396.675
396.517
396.359
396.202
396.046
395.891
395.737
395.585
395.435
395.287
395.293
395.308
395.332
395.36
395.393
400
400
400
400
400
399.886
399.759
399.621
399.472
399.317
399.155
398.99
398.823
398.654
398.484
398.315
398.147
397.979
397.813
397.648
397.483
397.32
397.158
396.996
396.836
396.676
396.517
396.359
396.201
396.044
395.889
395.735
395.582
395.432
395.283
395.289
395.304
395.328
395.356
395.39
400
400
400
400
400
399.887
399.76
399.621
399.473
399.318
399.157
398.992
398.824
398.655
398.485
398.316
398.147
397.98
397.814
397.65
397.486
397.323
397.161
396.999
396.838
396.678
396.518
396.36
396.201
396.044
395.889
395.734
395.582
395.431
395.282
395.288
395.303
395.327
395.355
395.389
400
400
400
400
400
399.887
399.76
399.622
399.474
399.318
399.157
398.992
398.824
398.655
398.485
398.315
398.146
397.979
397.813
397.649
397.486
397.323
397.161
396.999
396.837
396.677
396.517
396.357
396.199
396.041
395.885
395.731
395.578
395.427
395.278
395.283
395.299
395.322
395.351
395.384
400
400
400
400
400
399.887
399.761
399.623
399.475
399.32
399.159
398.994
398.826
398.657
398.487
398.317
398.148
397.981
397.816
397.652
397.489
397.326
397.164
397.001
396.839
396.678
396.518
396.358
396.199
396.042
395.885
395.731
395.578
395.427
395.278
395.283
395.299
395.322
395.35
395.384
400
400
400
400
400
399.887
399.761
399.623
399.475
399.32
399.159
398.994
398.826
398.657
398.487
398.317
398.148
397.98
397.815
397.651
397.488
397.324
397.161
396.998
396.836
396.675
396.514
396.354
396.195
396.037
395.88
395.725
395.572
395.42
395.271
395.276
395.292
395.315
395.344
395.377
400
400
400
400
400
399.887
399.762
399.624
399.477
399.322
399.161
398.997
398.829
398.66
398.49
398.32
398.15
397.983
397.817
397.653
397.489
397.324
397.161
396.997
396.834
396.672
396.51
396.35
396.19
396.031
395.874
395.718
395.564
395.411
395.261
395.266
395.281
395.304
395.332
395.365
400
400
400
400
400
399.887
399.761
399.623
399.476
399.321
399.16
398.994
398.826
398.656
398.485
398.313
398.143
397.974
397.806
397.64
397.473
397.307
397.141
396.975
396.81
396.645
396.48
396.317
396.154
395.993
395.833
395.674
395.517
395.361
395.208
395.212
395.226
395.249
395.276
395.308
400
400
400
400
400
399.888
399.761
399.623
399.474
399.317
399.154
398.987
398.815
398.642
398.466
398.29
398.115
397.94
397.767
397.594
397.421
397.247
397.074
396.9
396.727
396.554
396.382
396.21
396.039
395.869
395.7
395.532
395.366
395.201
395.039
395.04
395.052
395.073
395.1
395.13
400
400
400
400
400
399.884
399.754
399.609
399.452
399.286
399.112
398.931
398.746
398.557
398.365
398.171
397.976
397.782
397.587
397.392
397.197
397
396.803
396.606
396.408
396.21
396.012
395.814
395.617
395.42
395.224
395.029
394.835
394.643
394.453
394.453
394.467
394.492
394.524
394.559
400
400
400
400
400
399.865
399.709
399.532
399.339
399.131
398.912
398.683
398.447
398.205
397.958
397.709
397.457
397.205
396.953
396.699
396.443
396.186
395.928
395.669
395.409
395.148
394.887
394.627
394.366
394.106
393.847
393.589
393.333
393.079
392.829
392.902
392.996
393.099
393.206
393.304
400
400
400
400
400
399.893
399.775
399.645
399.504
399.352
399.19
399.019
398.838
398.65
398.455
398.253
398.046
397.833
397.617
397.397
397.174
396.948
396.719
396.486
396.25
396.012
395.771
395.529
395.287
395.044
394.801
394.559
394.319
394.081
393.849
393.846
393.855
393.877
393.907
393.934
400
400
400
400
400
399.907
399.807
399.7
399.585
399.464
399.337
399.204
399.065
398.922
398.775
398.624
398.469
398.312
398.152
397.99
397.826
397.661
397.493
397.324
397.152
396.978
396.804
396.628
396.452
396.276
396.101
395.925
395.751
395.579
395.41
395.373
395.342
395.318
395.299
395.283
400
400
400
400
400
399.909
399.812
399.709
399.6
399.485
399.366
399.243
399.116
398.985
398.852
398.716
398.578
398.438
398.297
398.155
398.012
397.868
397.723
397.576
397.428
397.279
397.129
396.979
396.829
396.679
396.53
396.382
396.235
396.09
395.948
395.919
395.895
395.876
395.86
395.849
400
400
400
400
400
399.909
399.812
399.709
399.6
399.487
399.369
399.248
399.123
398.995
398.865
398.733
398.599
398.464
398.328
398.192
398.055
397.918
397.779
397.639
397.498
397.357
397.215
397.073
396.931
396.79
396.65
396.511
396.373
396.237
396.104
396.08
396.06
396.044
396.032
396.024
400
400
400
400
400
399.909
399.812
399.709
399.601
399.488
399.37
399.249
399.125
398.997
398.868
398.737
398.604
398.471
398.337
398.202
398.068
397.933
397.796
397.658
397.519
397.38
397.241
397.102
396.963
396.824
396.687
396.551
396.416
396.284
396.154
396.132
396.113
396.099
396.088
396.082
400
400
400
400
400
399.909
399.811
399.708
399.6
399.486
399.368
399.247
399.122
398.995
398.866
398.735
398.602
398.469
398.335
398.201
398.067
397.932
397.796
397.659
397.521
397.382
397.244
397.105
396.967
396.829
396.692
396.557
396.423
396.292
396.163
396.141
396.123
396.109
396.099
396.094
400
400
400
400
400
399.909
399.811
399.708
399.6
399.486
399.368
399.247
399.123
398.996
398.866
398.735
398.603
398.47
398.337
398.203
398.069
397.935
397.799
397.661
397.524
397.385
397.247
397.109
396.971
396.833
396.697
396.562
396.428
396.297
396.169
396.147
396.129
396.116
396.105
396.101
400
400
400
400
400
399.909
399.811
399.708
399.599
399.486
399.368
399.246
399.122
398.995
398.866
398.735
398.603
398.47
398.337
398.203
398.069
397.934
397.798
397.661
397.523
397.385
397.246
397.108
396.97
396.833
396.696
396.561
396.428
396.297
396.168
396.147
396.129
396.115
396.105
396.101
400
400
400
400
400