/*--------------------------------*- C++ -*----------------------------------*\
| =========                 |                                                 |
| \\      /  F ield         | OpenFOAM: The Open Source CFD Toolbox           |
|  \\    /   O peration     | Version:  5.0                                   |
|   \\  /    A nd           | Web:      www.OpenFOAM.org                      |
|    \\/     M anipulation  |                                                 |
\*---------------------------------------------------------------------------*/
FoamFile
{
    version     2.0;
    format      ascii;
    class       volScalarField;
    location    "700/air";
    object      alphat;
}
// * * * * * * * * * * * * * * * * * * * * * * * * * * * * * * * * * * * * * //

dimensions      [1 -1 -1 0 0 0 0];

internalField   nonuniform List<scalar> 
243000
(
0.000210765
0.000211266
0.000205827
0.000197851
0.000188432
0.000178402
0.000168325
0.0001586
0.000149509
0.000141307
0.000134228
0.00012851
0.000124302
0.000121381
0.000118988
0.00011662
0.000114124
0.000111601
0.000109162
0.000106898
0.000104945
0.000102333
9.73199e-05
8.76165e-05
9.78686e-05
0.00011649
0.000126739
0.000138687
0.000150782
0.000163119
0.000939054
0.000991494
0.000999738
0.000992494
0.000976594
0.000954659
0.000928804
0.000900709
0.000871723
0.000843142
0.000816226
0.000792036
0.000770436
0.000749641
0.00072732
0.000703629
0.000679616
0.000656447
0.000634252
0.000613179
0.00059271
0.000569195
0.00053467
0.000483852
0.000513635
0.000605437
0.000652111
0.000691878
0.000730304
0.000769015
0.00102614
0.00108544
0.00109812
0.00109158
0.0010753
0.00105226
0.00102487
0.000994955
0.000963921
0.000933125
0.000903801
0.000877059
0.000852513
0.000827757
0.000800422
0.000771349
0.000742304
0.000714958
0.000689439
0.000665588
0.000642083
0.000616117
0.000581357
0.000530827
0.000532465
0.000638133
0.000701483
0.000750122
0.000797011
0.000847186
0.00107993
0.00114201
0.00115976
0.00115546
0.00114072
0.00111874
0.00109199
0.00106235
0.00103126
0.00100013
0.000970208
0.000942726
0.000917153
0.000890584
0.000860501
0.000828076
0.000795512
0.000764911
0.000736522
0.000710068
0.000683704
0.000654794
0.000618968
0.000568023
0.000543667
0.000650068
0.000728207
0.000786137
0.00084031
0.0008986
0.00111311
0.00117724
0.00119922
0.00119755
0.00118518
0.0011653
0.00114027
0.00111197
0.00108188
0.0010514
0.00102187
0.000994631
0.000969038
0.000941811
0.00091026
0.000875792
0.000840895
0.000807928
0.000777319
0.000748756
0.000720092
0.00068857
0.000651568
0.00060062
0.000560356
0.000644375
0.000743066
0.000808992
0.000869045
0.000933185
0.00113377
0.00119785
0.00122377
0.00122489
0.00121527
0.001198
0.00117528
0.00114892
0.00112041
0.00109119
0.00106264
0.00103623
0.0010112
0.000983994
0.00095175
0.000916097
0.000879764
0.000845149
0.000812913
0.000782745
0.000752331
0.000718751
0.000680722
0.000630247
0.000580659
0.000626278
0.000748685
0.0008238
0.000889562
0.000957933
0.00114569
0.00120722
0.00123729
0.00124161
0.00123496
0.00122057
0.00120047
0.00117639
0.00114981
0.00112222
0.00109506
0.00106984
0.00104572
0.00101896
0.000986534
0.000950313
0.000913177
0.000877481
0.000844113
0.000812781
0.000781077
0.000746003
0.000707195
0.000657466
0.000602482
0.000608471
0.000747699
0.000832143
0.00090334
0.000974932
0.00115047
0.00120855
0.00124193
0.00125023
0.0012468
0.00123545
0.00121814
0.00119652
0.00117208
0.00114637
0.00112085
0.00109705
0.00107406
0.00104801
0.00101579
0.000979454
0.000941979
0.000905667
0.000871567
0.000839438
0.000806806
0.00077074
0.000731423
0.000682519
0.000624714
0.000597818
0.000739521
0.00083568
0.00091178
0.000985428
0.00114931
0.00120474
0.00124009
0.00125257
0.00125255
0.00124433
0.00122988
0.00121081
0.00118863
0.00116494
0.00114123
0.001119
0.0010973
0.00107211
0.00104038
0.00100429
0.000966827
0.00093031
0.000895804
0.000863175
0.000829897
0.00079326
0.0007537
0.000705577
0.000647008
0.000607995
0.000722792
0.000835757
0.000915902
0.000990414
0.00114394
0.00119716
0.00123394
0.00125011
0.00125357
0.00124836
0.0012368
0.00122035
0.00120048
0.00117891
0.00115713
0.00113656
0.00111621
0.001092
0.00106098
0.00102542
0.000988267
0.000951869
0.000917242
0.000884362
0.000850668
0.000813816
0.000774248
0.000726831
0.000668534
0.000619695
0.000703957
0.000832161
0.000916477
0.000990897
0.00113495
0.00118655
0.00122454
0.00124403
0.00125089
0.00124895
0.00123995
0.00122589
0.00120838
0.00118899
0.00116921
0.00115037
0.00113141
0.00110822
0.00107811
0.00104333
0.00100673
0.000970701
0.000936235
0.000903313
0.000869404
0.000832621
0.000793249
0.000746494
0.000689135
0.000633601
0.000686211
0.000824851
0.000912667
0.000986569
0.00112267
0.00117339
0.00121252
0.00123496
0.00124521
0.00124635
0.00124031
0.00122842
0.00121295
0.00119573
0.00117798
0.00116091
0.00114334
0.00112123
0.00109218
0.00105837
0.00102258
0.000987131
0.000953057
0.000920296
0.000886343
0.000849867
0.000810858
0.000764791
0.000708438
0.000649049
0.000670582
0.000814738
0.000906055
0.00098112
0.00110733
0.00115796
0.00119831
0.00122348
0.00123703
0.00124112
0.00123786
0.00122861
0.001215
0.00119965
0.0011839
0.00116858
0.00115237
0.00113141
0.00110353
0.00107088
0.00103609
0.00100143
0.000967931
0.000935545
0.000901714
0.000865734
0.000827199
0.000781955
0.000726628
0.00066493
0.000659012
0.000804051
0.000899868
0.000976667
0.00108942
0.0011405
0.00118223
0.00121006
0.00122668
0.00123367
0.00123313
0.00122631
0.00121502
0.00120136
0.00118733
0.00117369
0.00115881
0.00113904
0.00111246
0.00108112
0.00104751
0.00101384
0.000981088
0.000949246
0.000915703
0.000880383
0.000842473
0.000798044
0.000743809
0.000681152
0.000653345
0.000793593
0.000893476
0.000970962
0.00107137
0.00112146
0.0011646
0.00119497
0.00121444
0.00122435
0.00122636
0.00122192
0.00121273
0.00120122
0.00118872
0.00117652
0.00116294
0.0011444
0.0011192
0.00108933
0.00105708
0.00102457
0.000992735
0.000961602
0.000928501
0.000893976
0.000856821
0.000813243
0.000760101
0.000697383
0.000654053
0.000783146
0.000886554
0.00096413
0.00105333
0.00110269
0.00114578
0.00117845
0.00120059
0.00121334
0.00121779
0.00121568
0.00120855
0.00119895
0.00118834
0.00117747
0.00116498
0.00114771
0.001124
0.00109573
0.001065
0.00103381
0.00100307
0.000972795
0.000940295
0.000906675
0.000870383
0.000827711
0.000775635
0.000713267
0.000663871
0.00076981
0.000879088
0.000956694
0.00103502
0.00108444
0.0011271
0.0011608
0.00118541
0.00120081
0.00120762
0.00120775
0.00120266
0.00119494
0.00118601
0.00117665
0.00116536
0.0011492
0.00112709
0.00110054
0.00107147
0.00104175
0.00101226
0.000983001
0.000951266
0.000918636
0.000883307
0.0008416
0.000790565
0.000728798
0.000674692
0.000757244
0.000871134
0.000948983
0.00101622
0.00106645
0.00110914
0.00114259
0.00116911
0.00118692
0.0011961
0.0011983
0.00119523
0.00118936
0.00118208
0.00117414
0.001164
0.00114926
0.00112869
0.00110397
0.0010767
0.00104858
0.0010205
0.000992377
0.000961579
0.000930019
0.000895739
0.000855061
0.000805059
0.000743992
0.000685681
0.000746699
0.000862958
0.00094106
0.000996803
0.00104855
0.00109169
0.00112525
0.001152
0.00117189
0.0011834
0.00118751
0.00118642
0.00118236
0.0011767
0.00117018
0.00116121
0.00114785
0.00112903
0.00110624
0.00108088
0.00105451
0.00102795
0.00100107
0.000971385
0.000940962
0.000907805
0.000868232
0.000819287
0.000758982
0.000697864
0.000737971
0.000854686
0.000932938
0.000976713
0.00103066
0.00107463
0.00110852
0.00113505
0.00115596
0.00116963
0.00117557
0.00117636
0.00117408
0.00117003
0.00116491
0.00115716
0.00114526
0.00112827
0.00110752
0.00108421
0.0010597
0.00103473
0.00100919
0.000980775
0.000951561
0.000919622
0.000881236
0.000833403
0.000773905
0.000710527
0.000730941
0.0008464
0.0009247
0.000955984
0.00101279
0.00105787
0.00109226
0.00111874
0.00113937
0.00115489
0.0011626
0.00116513
0.00116462
0.00116213
0.00115843
0.00115197
0.00114163
0.00112656
0.00110797
0.00108682
0.00106424
0.00104093
0.00101679
0.000989743
0.000961882
0.000931284
0.000894194
0.000847556
0.000788904
0.000723829
0.000726096
0.000838298
0.000916457
0.00093465
0.000995019
0.00104142
0.00107639
0.00110297
0.00112341
0.00113929
0.00114858
0.00115275
0.00115394
0.00115301
0.00115071
0.00114564
0.00113696
0.00112391
0.0011076
0.00108868
0.00106812
0.00104649
0.00102378
0.000998187
0.000971976
0.000942891
0.000907296
0.000861898
0.000804128
0.000737741
0.000724209
0.00083075
0.000908406
0.000913044
0.000977569
0.00102537
0.00106094
0.00108768
0.00110801
0.00112375
0.00113363
0.00113919
0.00114191
0.0011425
0.00114159
0.00113798
0.00113105
0.00112013
0.00110616
0.0010895
0.00107102
0.00105111
0.00102992
0.00100637
0.000982061
0.000954669
0.000920742
0.00087668
0.000819792
0.000752795
0.000725628
0.000824376
0.000900954
0.000892074
0.000960821
0.00100985
0.00104586
0.00107276
0.00109318
0.00110904
0.00111913
0.00112488
0.00112848
0.00113039
0.00113084
0.0011287
0.00112353
0.00111479
0.00110321
0.00108891
0.00107256
0.00105447
0.00103547
0.00101489
0.000992721
0.0009672
0.000935076
0.000892494
0.000836345
0.000768549
0.000730453
0.000819755
0.00089454
0.000872834
0.000945312
0.000995083
0.00103135
0.0010585
0.00107918
0.00109531
0.00110582
0.001112
0.00111618
0.00111882
0.00112007
0.00111918
0.0011157
0.00110934
0.00110043
0.00108904
0.00107562
0.0010604
0.00104384
0.00102572
0.0010056
0.000981918
0.000951587
0.000910467
0.000854985
0.000786215
0.000738891
0.000817949
0.000889934
0.000857416
0.000932215
0.000982106
0.00101831
0.00104555
0.00106652
0.0010831
0.00109435
0.00110137
0.00110663
0.00111052
0.00111306
0.00111394
0.00111271
0.00110913
0.00110326
0.0010951
0.00108478
0.00107242
0.00105832
0.00104236
0.00102403
0.0010019
0.000972972
0.000933033
0.000877927
0.000807623
0.000752691
0.000820664
0.000888771
0.000851624
0.000924365
0.000973419
0.00100927
0.0010365
0.00105792
0.00107535
0.00108826
0.00109701
0.00110432
0.00111037
0.00111543
0.00111918
0.00112128
0.00112134
0.00111924
0.00111469
0.00110764
0.00109806
0.00108617
0.00107186
0.00105467
0.00103333
0.00100517
0.000965706
0.000910275
0.000837645
0.000776362
0.000831714
0.000894393
0.000867613
0.00093441
0.000981374
0.00101684
0.0010448
0.00106758
0.00108698
0.00110348
0.00111585
0.00112718
0.00113736
0.00114695
0.00115563
0.00116269
0.00116746
0.00116937
0.00116817
0.00116358
0.00115562
0.00114464
0.00113061
0.00111311
0.00109115
0.00106249
0.00102307
0.000967323
0.000892619
0.000826692
0.000866986
0.000920512
0.00097855
0.00103398
0.001076
0.00111008
0.00113893
0.00116339
0.0011851
0.00120582
0.00122344
0.00124003
0.00125461
0.00126995
0.00128457
0.0012964
0.00130445
0.00130828
0.00130794
0.00130326
0.00129453
0.0012825
0.00126729
0.00124807
0.00122459
0.00119573
0.00115857
0.00110854
0.00104232
0.000981818
0.00100133
0.00103667
0.00144794
0.00147538
0.00149729
0.00151613
0.00153266
0.00154238
0.00154975
0.00155764
0.00156675
0.00157556
0.00158096
0.00159309
0.00160573
0.00161346
0.00161663
0.00161686
0.00161392
0.00160843
0.00160078
0.00159282
0.00158419
0.00157171
0.00155768
0.0015437
0.00152777
0.00150855
0.00148166
0.00145867
0.00146383
0.00147692
0.00025353
0.000261973
0.000258066
0.000250099
0.000239626
0.000227813
0.000215471
0.000203197
0.000191395
0.000180377
0.000170349
0.000161583
0.000154291
0.00014806
0.00014173
0.000134745
0.000127053
0.000118925
0.000110611
0.000102402
9.55327e-05
9.02316e-05
0.0003885
8.95e-05
0.000106148
0.000121456
0.000130262
0.000143038
0.000159687
0.000180609
0.00107655
0.00122656
0.00118974
0.00110807
0.00101574
0.000925043
0.000843328
0.000770944
0.000706394
0.00064792
0.000594113
0.000545017
0.000493979
0.000438152
0.000385227
0.000345363
0.000319006
0.000305682
0.000301561
0.000307552
0.000318357
0.000338141
0.000354776
0.000350396
0.000502216
0.000649509
0.000756319
0.000838859
0.0009351
0.00102141
0.00181978
0.00213912
0.00215073
0.00204562
0.0019027
0.00175064
0.0016074
0.00147653
0.00135702
0.00124726
0.00114507
0.00105058
0.000950494
0.000840409
0.000737926
0.000661248
0.000610637
0.000584941
0.000576654
0.000587256
0.000601969
0.000614593
0.000573299
0.000532647
0.000674208
0.000893782
0.00114347
0.00136623
0.00157323
0.00170873
0.00241951
0.00285081
0.00292036
0.00282373
0.00266216
0.00247798
0.00229641
0.00212423
0.00196255
0.00181277
0.00167071
0.00153268
0.00138749
0.00123179
0.00108922
0.0009822
0.000910015
0.00087173
0.000857638
0.000866576
0.000879772
0.000876064
0.000782264
0.000669185
0.000736294
0.00100099
0.00136092
0.00173381
0.00206066
0.00224559
0.00287538
0.00341344
0.00351834
0.00344265
0.00328028
0.00308526
0.00288323
0.00268503
0.0024943
0.00231314
0.00213733
0.0019667
0.00178498
0.00159272
0.00141832
0.00128759
0.00119763
0.00114774
0.00112788
0.00113404
0.00114433
0.00112483
0.000983322
0.000794326
0.000781636
0.00104837
0.00150348
0.0019875
0.00242925
0.00269033
0.00325143
0.00381551
0.00397779
0.00392718
0.00377508
0.00358343
0.00337372
0.00316126
0.00295175
0.00274689
0.00254818
0.00235143
0.00214111
0.0019217
0.00172318
0.00157401
0.00146986
0.0014094
0.00138388
0.00138732
0.00139597
0.00136231
0.0011796
0.000923606
0.00082689
0.00106344
0.00159293
0.00218773
0.00273182
0.00306778
0.00355349
0.00409108
0.0043061
0.00429811
0.00416688
0.00398768
0.00377985
0.00356173
0.00334128
0.003121
0.00290612
0.00269112
0.0024599
0.00222146
0.00200553
0.00184218
0.0017267
0.00165652
0.00162553
0.00162658
0.00163602
0.0015887
0.00137094
0.00105951
0.000886288
0.00104794
0.00164356
0.00233069
0.00297153
0.00339122
0.00378097
0.00428115
0.00451641
0.00456452
0.00447213
0.00431164
0.00411384
0.00389578
0.00367048
0.00344333
0.00321468
0.00298981
0.00274595
0.00249471
0.00226742
0.00209336
0.00196875
0.00188973
0.00185345
0.00185235
0.00186396
0.00180359
0.00155596
0.00120003
0.000957742
0.00103946
0.00166614
0.00242766
0.00315365
0.00366181
0.00394926
0.00442633
0.0046746
0.00474872
0.00470129
0.00456796
0.0043857
0.00417196
0.00394682
0.00371797
0.00348366
0.00325084
0.00300296
0.0027447
0.00251064
0.00232864
0.00219659
0.00210975
0.00206849
0.00206536
0.00208
0.00200667
0.00173339
0.00134203
0.00103854
0.00106217
0.00166945
0.00248819
0.00328503
0.00387889
0.00408423
0.00453295
0.00478893
0.00488545
0.00486748
0.00476752
0.00460395
0.0043977
0.00417627
0.00394951
0.00371736
0.00347906
0.00323049
0.00297336
0.00273644
0.00254883
0.00241046
0.00231752
0.00227148
0.00226654
0.00228453
0.00219806
0.00190251
0.00148289
0.00112844
0.00109828
0.00165489
0.00252003
0.00337352
0.00405303
0.00418426
0.00460395
0.00486543
0.00498147
0.00499306
0.00492199
0.00478251
0.00458209
0.00436356
0.00414302
0.0039167
0.00368281
0.0034332
0.00317935
0.00294571
0.00275454
0.00261112
0.00251336
0.00246312
0.00245701
0.00247811
0.00237813
0.00206295
0.00162085
0.00122651
0.00114378
0.00163537
0.0025306
0.00342679
0.00418594
0.00424418
0.00463994
0.00490834
0.0050434
0.00508113
0.00503639
0.00492627
0.00473991
0.00452166
0.00430345
0.00408614
0.00386078
0.0036186
0.00336974
0.00313821
0.00294616
0.00279919
0.00269783
0.002644
0.0026382
0.00266132
0.00254745
0.00221435
0.00175649
0.00133017
0.00119248
0.00161947
0.00252816
0.00345181
0.0042772
0.00425756
0.00464216
0.00492093
0.00507622
0.00513757
0.00511802
0.00503323
0.00487373
0.00465928
0.00444181
0.00422998
0.00401622
0.00378532
0.00354528
0.00331776
0.00312472
0.00297547
0.00287155
0.0028149
0.00281206
0.00283475
0.00270673
0.0023579
0.00188862
0.00143777
0.00124245
0.00160867
0.00251009
0.00345809
0.00431197
0.00421968
0.00461125
0.0049051
0.00508383
0.00516709
0.00517132
0.00510868
0.00497197
0.00477742
0.00456421
0.00435541
0.0041521
0.00393543
0.00370608
0.00348391
0.00329255
0.00314098
0.00303534
0.00297668
0.00297857
0.00299858
0.00285681
0.00249495
0.0020151
0.00154724
0.00130011
0.00160416
0.00248017
0.0034327
0.00430154
0.00412282
0.00454758
0.00486348
0.00506947
0.00517379
0.00520024
0.00515751
0.00504648
0.00486456
0.00467073
0.00446807
0.0042725
0.00407106
0.00385347
0.0036377
0.00344839
0.00329679
0.00318992
0.00313032
0.003137
0.00315282
0.00299857
0.00262682
0.00213759
0.00165444
0.00136532
0.00160634
0.00244442
0.00338698
0.0042617
0.00396916
0.00444512
0.00479958
0.00503513
0.00516171
0.00520862
0.00518517
0.0050978
0.00493394
0.00475347
0.00457058
0.00438309
0.00419436
0.00398879
0.00378033
0.00359387
0.00344316
0.00333581
0.00327687
0.00328704
0.00329714
0.0031325
0.00275451
0.00225762
0.00176069
0.00143457
0.00161602
0.00240613
0.00332819
0.00419937
0.00377756
0.00430463
0.00471314
0.00498325
0.00513456
0.00520044
0.00519584
0.00512953
0.0049885
0.00482125
0.0046559
0.00448493
0.00430851
0.00411364
0.00391305
0.00373146
0.0035814
0.00347332
0.00341706
0.00342759
0.00343035
0.00325812
0.00287834
0.00237791
0.00186751
0.0015043
0.00163676
0.00236732
0.00326048
0.0041204
0.00356591
0.00414165
0.00459769
0.00491738
0.00509445
0.00517979
0.00519344
0.00514605
0.00503027
0.00487955
0.00472883
0.00457924
0.00441418
0.00422942
0.00403672
0.0038595
0.00371117
0.00360209
0.00355035
0.00355541
0.0035496
0.00337321
0.00299693
0.00249711
0.00197635
0.00158082
0.00166686
0.00233025
0.00318893
0.00403178
0.00335137
0.00396788
0.0044642
0.00482803
0.00504524
0.00515144
0.00518221
0.00515208
0.00506226
0.00493049
0.00479521
0.0046657
0.00451066
0.00433608
0.00415086
0.00397767
0.00383055
0.00372057
0.00366924
0.00366484
0.00364824
0.00347285
0.0031064
0.00261155
0.0020869
0.00166855
0.00170336
0.00229746
0.0031178
0.0039398
0.00314622
0.00379316
0.00432242
0.00472488
0.00498587
0.00511894
0.00516655
0.00515306
0.00508629
0.00497535
0.00486117
0.0047402
0.00459633
0.0044309
0.00425167
0.00408105
0.00393389
0.00382201
0.00376351
0.00374612
0.00371646
0.00354743
0.0031994
0.00271683
0.00219832
0.00176496
0.00173568
0.00227202
0.00305062
0.00384893
0.00295957
0.00362649
0.00418072
0.00461515
0.00491359
0.00508762
0.00515069
0.00515217
0.00510315
0.00501515
0.00491177
0.00480115
0.00466529
0.00450544
0.00432881
0.00415788
0.00400822
0.00388869
0.00381659
0.00378311
0.00374011
0.00358233
0.00326397
0.00280485
0.00230262
0.00186315
0.00178238
0.00226203
0.00299123
0.00376272
0.00279922
0.00347528
0.00404606
0.00450471
0.00483381
0.00504265
0.00513604
0.00514745
0.00511322
0.00503704
0.00494119
0.00483216
0.00469855
0.00454045
0.00436063
0.0041854
0.00402604
0.0038935
0.00380441
0.00375437
0.00370072
0.00355971
0.00328364
0.00286511
0.00238892
0.00195695
0.00184697
0.00227055
0.00294437
0.00368263
0.00267169
0.00334468
0.0039236
0.00439795
0.00474277
0.00495938
0.0050711
0.00512014
0.00509147
0.00501943
0.00492303
0.00480524
0.0046624
0.0044966
0.00431162
0.00412542
0.0039492
0.00380409
0.00370168
0.00363868
0.00358035
0.00346389
0.00324292
0.00288606
0.00244857
0.002039
0.00191826
0.00230329
0.00292958
0.00362338
0.00257944
0.00323568
0.00380058
0.00424826
0.00457345
0.00480742
0.00495807
0.00501477
0.00498577
0.00491081
0.00480479
0.00467254
0.00451146
0.00432891
0.00413134
0.00393603
0.00375419
0.00360659
0.00350082
0.00343224
0.00337853
0.00329502
0.00313837
0.00286011
0.00247422
0.00210113
0.00197935
0.00234073
0.0029238
0.00357325
0.00251492
0.00310906
0.00361342
0.0040296
0.00435849
0.00459135
0.00473022
0.00476067
0.00471546
0.00462894
0.00451241
0.0043712
0.00420298
0.00401506
0.00381562
0.00363045
0.00346795
0.00333716
0.00324189
0.00318068
0.0031397
0.00308991
0.00299231
0.00279612
0.00247033
0.00213989
0.0020218
0.00236386
0.00288237
0.00347573
0.00243365
0.00295284
0.00339834
0.00376174
0.00403347
0.00422084
0.00431588
0.00431317
0.00425568
0.00416895
0.00405876
0.00392963
0.00378517
0.00362866
0.00346775
0.00332425
0.00320682
0.003113
0.00304013
0.00299246
0.00296051
0.00292721
0.00286427
0.00272764
0.00246906
0.0021673
0.00204517
0.002343
0.00275325
0.00325577
0.0023411
0.00273957
0.00307949
0.00335414
0.00355093
0.00368593
0.00376023
0.00375882
0.00372463
0.00367241
0.00360384
0.00352244
0.00343393
0.00334115
0.00324851
0.00316576
0.00309847
0.00304231
0.00299242
0.00295384
0.00292133
0.00288571
0.00282966
0.00272124
0.00251893
0.00223225
0.00206299
0.00224751
0.00255574
0.00292668
0.00223287
0.00252606
0.00276512
0.00296366
0.00311855
0.00323806
0.00332314
0.00335695
0.00336957
0.00336783
0.00335139
0.00332429
0.00329127
0.00325499
0.00321483
0.00316987
0.00312962
0.00308929
0.00305172
0.00301796
0.00298626
0.00295158
0.00290279
0.00281764
0.00266442
0.00242678
0.00220741
0.00225008
0.00244304
0.00268293
0.00246902
0.00265146
0.00280687
0.00294018
0.0030515
0.00314491
0.00321822
0.00326039
0.00328881
0.00330422
0.00330687
0.00329928
0.00328117
0.0032561
0.00322282
0.00319002
0.00315906
0.00312954
0.00310261
0.00307955
0.00305958
0.00303887
0.00300972
0.00295712
0.00286608
0.00272446
0.00257453
0.0025575
0.0026571
0.00278753
0.00293859
0.00300213
0.00305943
0.00311162
0.0031586
0.00319885
0.00323013
0.00324733
0.00325908
0.00325991
0.00325449
0.0032489
0.00323688
0.00321555
0.00318551
0.0031585
0.00313721
0.00312193
0.00311278
0.00310927
0.0031088
0.00310846
0.00310535
0.00309315
0.00306657
0.00302662
0.00298348
0.00297866
0.00300996
0.00304871
0.000282699
0.000295888
0.000291939
0.000283853
0.000272915
0.000260242
0.00024671
0.000232971
0.000219446
0.000206429
0.000194093
0.000182554
0.000171883
0.000161467
0.000150079
0.000137853
0.000125243
0.000113469
0.000102605
9.33268e-05
7.89891e-05
0.000385135
8.35427e-05
9.44644e-05
0.000111206
0.000125811
0.000133998
0.000145265
0.000160068
0.000192596
0.00134258
0.00157449
0.00158176
0.00148923
0.00136857
0.00124479
0.00113098
0.00102825
0.000934495
0.00084698
0.000762938
0.000680522
0.000590963
0.000498836
0.000430437
0.000404159
0.00040733
0.000433905
0.000466375
0.000505523
0.000539407
0.000507003
0.000357632
0.000343606
0.000533051
0.000731997
0.000911502
0.00104966
0.00112553
0.00106082
0.00226883
0.00274592
0.00286124
0.00277343
0.00260212
0.00240245
0.00220473
0.00201698
0.00183877
0.00166785
0.00150102
0.001335
0.00115211
0.000967243
0.000834011
0.000783974
0.00078768
0.000829693
0.000880633
0.000942541
0.00101076
0.000901129
0.000637986
0.000567616
0.000805766
0.00114829
0.00151362
0.00181534
0.00196869
0.00189865
0.00303676
0.0036577
0.00386419
0.00381028
0.00362888
0.00339573
0.00314868
0.00290256
0.00266023
0.00242232
0.00218753
0.00194975
0.00168269
0.0014189
0.00123733
0.00116892
0.00116986
0.00121827
0.00127955
0.00135396
0.00142484
0.00127128
0.000917058
0.000744684
0.00094383
0.00136311
0.00190252
0.00238966
0.00264866
0.00261807
0.00363913
0.00439134
0.00465175
0.00463551
0.00446015
0.00421736
0.00394328
0.00365889
0.00337003
0.00308188
0.00279378
0.00248976
0.00215791
0.0018375
0.00162168
0.0015411
0.00153877
0.00158993
0.00165882
0.00174282
0.00180857
0.00162041
0.00120399
0.000930631
0.00105762
0.00150936
0.00219988
0.00282003
0.00318734
0.00322858
0.00415135
0.00494004
0.00527813
0.00529433
0.0051335
0.00489466
0.00460807
0.00429923
0.00397732
0.00365199
0.00331768
0.00296712
0.00258476
0.00222411
0.00198731
0.00189918
0.00189312
0.00194476
0.00201945
0.00211283
0.00217027
0.00195396
0.00149497
0.0011315
0.00116777
0.00161995
0.00243208
0.00319278
0.00364343
0.0037673
0.00458871
0.00534315
0.00573504
0.00581507
0.00568033
0.00545204
0.00516454
0.00484021
0.0044955
0.00414292
0.00377321
0.00338896
0.00297203
0.00258513
0.00233794
0.00224469
0.0022346
0.00228424
0.0023635
0.00246934
0.00251164
0.00227262
0.00178398
0.00134705
0.00129861
0.00172164
0.00261354
0.00350272
0.00405271
0.00424374
0.00493367
0.00565519
0.00606168
0.00619816
0.00612022
0.00590975
0.00562949
0.00529645
0.0049368
0.00456516
0.00417263
0.00376257
0.00332551
0.00292708
0.00267713
0.00257965
0.00256447
0.0026099
0.00269254
0.00281108
0.00283359
0.00257459
0.00206493
0.00157122
0.00144696
0.00181862
0.00275715
0.00375569
0.00440541
0.00467419
0.00524083
0.00593019
0.00633894
0.00649603
0.00646285
0.00628463
0.00601599
0.00568088
0.00531164
0.00492836
0.00452572
0.00409636
0.0036502
0.00325562
0.00300738
0.00290545
0.00288378
0.00292286
0.0030083
0.00313529
0.00313502
0.00285772
0.00233272
0.00179473
0.00159878
0.00192074
0.00287503
0.00396217
0.00470621
0.00506523
0.00552355
0.00616956
0.00657179
0.00674294
0.0067321
0.00658767
0.00633635
0.00600319
0.00562879
0.00524128
0.00483608
0.00440186
0.00395175
0.00357235
0.00332981
0.00322274
0.00319315
0.00322399
0.00331236
0.00344006
0.00341436
0.00311972
0.00258334
0.00201128
0.00174892
0.00202211
0.00297529
0.0041303
0.00496105
0.00541565
0.00577087
0.00637123
0.00676361
0.00694489
0.00695446
0.00683593
0.00661031
0.00627696
0.0058952
0.00551107
0.00510987
0.00468289
0.00424162
0.00387952
0.0036449
0.00353171
0.00349302
0.00351377
0.00360588
0.00372352
0.00367015
0.0033584
0.00281394
0.00221719
0.00189429
0.0021212
0.00306224
0.00426639
0.00517888
0.00572579
0.00596872
0.00653183
0.00691627
0.00710712
0.00713482
0.0070378
0.00683895
0.00651935
0.00613291
0.00574497
0.0053553
0.00494403
0.00452456
0.0041796
0.00395292
0.00383232
0.00378346
0.00379271
0.00388563
0.00398351
0.003901
0.00357193
0.00302229
0.00241097
0.00203296
0.00221698
0.00313725
0.0043745
0.00536252
0.00599529
0.00610633
0.00664769
0.0070308
0.0072339
0.00727672
0.0071998
0.00702423
0.0067358
0.00634841
0.00595866
0.00558041
0.00519051
0.00479937
0.00447511
0.00425326
0.00412428
0.00406425
0.00406118
0.00414937
0.00421749
0.0041058
0.00375875
0.003207
0.00259131
0.00216254
0.00231095
0.00320066
0.00445721
0.00551232
0.006223
0.00617206
0.00671314
0.00710693
0.00732755
0.00738628
0.00732737
0.00717078
0.00690616
0.00654768
0.0061566
0.00579111
0.00542663
0.00506726
0.004765
0.00454479
0.00440707
0.00433474
0.00431896
0.00439412
0.00442446
0.00428367
0.00391934
0.00336842
0.00275299
0.0022857
0.00240458
0.00325331
0.0045173
0.0056295
0.00641011
0.00616694
0.00673093
0.00714194
0.00738923
0.00746881
0.00742577
0.00728583
0.00705106
0.00671366
0.00634215
0.0059921
0.00565515
0.00532851
0.00504775
0.00482755
0.00467977
0.00459351
0.00456469
0.00461496
0.00460242
0.0044331
0.00405474
0.00350574
0.00289412
0.00240445
0.00248489
0.00329621
0.00456039
0.0057161
0.00655453
0.00609881
0.00670034
0.00714611
0.0074182
0.00752867
0.00750045
0.00737803
0.0071696
0.00685471
0.0065178
0.00618698
0.00587818
0.00558259
0.00531844
0.00509904
0.00493996
0.00483709
0.00479252
0.00480441
0.00474664
0.00455096
0.00416447
0.00361913
0.00301498
0.00251565
0.00254876
0.00333102
0.00459012
0.00577408
0.00664676
0.00597263
0.00662644
0.00711736
0.00742334
0.00756507
0.00755702
0.00745249
0.00726732
0.00698507
0.00668449
0.00637785
0.00609551
0.00582817
0.00557267
0.00535466
0.00518237
0.00505886
0.00499003
0.00495258
0.00484991
0.00463206
0.00424591
0.00370854
0.00311583
0.00261858
0.0026096
0.00335577
0.00459363
0.00578626
0.0066946
0.00579845
0.00651589
0.00705996
0.00740885
0.00757939
0.0075984
0.00751371
0.00734986
0.00710648
0.00683945
0.00656248
0.00630323
0.00605189
0.0058112
0.00558725
0.00539694
0.00524791
0.00513989
0.00504614
0.00490278
0.00466902
0.00429383
0.00377236
0.00319639
0.0027129
0.00267409
0.00337016
0.00456596
0.00576029
0.00670106
0.00559005
0.006377
0.00697816
0.00737229
0.00757817
0.00762757
0.00756479
0.00742144
0.00721878
0.00697979
0.006733
0.00649155
0.0062564
0.00601801
0.00578183
0.00556633
0.0053821
0.00522185
0.00507231
0.00489459
0.00465336
0.00430023
0.0038083
0.00325466
0.00279584
0.0027404
0.00338406
0.00451381
0.00570225
0.0066709
0.00536343
0.00621948
0.00687676
0.00731542
0.0075577
0.0076389
0.00760059
0.00747859
0.00731986
0.00711143
0.00687554
0.00664423
0.00641598
0.00617135
0.00591401
0.00566489
0.00543127
0.00521474
0.00501807
0.0048158
0.0045776
0.00425735
0.00381279
0.00328839
0.0028591
0.00279911
0.00341321
0.00445483
0.00561164
0.00660636
0.00513599
0.0060543
0.00676079
0.00723868
0.00751592
0.00762819
0.00761745
0.00753946
0.00738324
0.0071872
0.00696872
0.00673632
0.00649775
0.00623683
0.00595064
0.00565819
0.00536891
0.00510509
0.00487667
0.00466301
0.0044395
0.00416277
0.00378147
0.00329667
0.00289933
0.00283836
0.00344684
0.00441508
0.00550318
0.00649787
0.00492664
0.00589229
0.00663245
0.00714207
0.0074472
0.00755046
0.00756015
0.00751287
0.00736767
0.00718016
0.00696909
0.00672936
0.00646498
0.00617367
0.00585246
0.00551626
0.00518682
0.00489771
0.00465612
0.0044457
0.00424796
0.00402238
0.00371408
0.00328305
0.00291562
0.00285504
0.00346631
0.00437632
0.00541477
0.00637725
0.00475517
0.00572131
0.00644666
0.00691949
0.00718601
0.00734338
0.00740489
0.00736469
0.00722131
0.00703534
0.00682218
0.00657363
0.00628297
0.00595919
0.00560001
0.00524198
0.00490932
0.00462162
0.00438664
0.00419372
0.00402882
0.0038555
0.00361952
0.00325749
0.00291342
0.00285445
0.0034614
0.00430711
0.00530594
0.00623354
0.00455441
0.00542477
0.00606649
0.00651593
0.00683416
0.00702265
0.00708888
0.00702969
0.00688328
0.00669736
0.00648383
0.00623278
0.00593752
0.00560398
0.00523653
0.00489273
0.00459262
0.00433317
0.00412169
0.00395624
0.00382426
0.00369596
0.00352263
0.0032338
0.0029065
0.00283289
0.00339743
0.00414627
0.00508092
0.00594813
0.00421604
0.00498596
0.00558766
0.00603636
0.00632606
0.00650081
0.00654671
0.00647464
0.00633784
0.00616869
0.00597474
0.00574591
0.00547783
0.0051779
0.00485392
0.00455948
0.0043147
0.00409839
0.00391788
0.00378178
0.00368032
0.00358765
0.00346155
0.00323554
0.00292051
0.00279452
0.00322998
0.0038808
0.00465162
0.00542159
0.00388563
0.00450038
0.00499113
0.00536147
0.00561768
0.00576487
0.00581162
0.00576019
0.00566471
0.00554391
0.00540091
0.00522699
0.00502095
0.00479196
0.00454731
0.00432274
0.00412761
0.00395624
0.00381921
0.00371627
0.0036366
0.0035626
0.00346295
0.00328413
0.00299361
0.00278952
0.0030129
0.00354567
0.00411295
0.00471097
0.00344283
0.0039174
0.00431418
0.00461698
0.00483984
0.00498994
0.00507115
0.00507572
0.00504685
0.00499507
0.00492003
0.00481616
0.00468406
0.0045323
0.00436103
0.00418844
0.00403976
0.00390667
0.00379859
0.00371543
0.00365148
0.00359411
0.00351901
0.00338354
0.00314982
0.00289706
0.00291733
0.00325625
0.00362806
0.0040487
0.00322564
0.00357171
0.00386829
0.00411407
0.00431221
0.00446632
0.00457582
0.00462902
0.00465228
0.00465277
0.00462819
0.00457593
0.00449354
0.00438469
0.00424992