/*--------------------------------*- C++ -*----------------------------------*\
| =========                 |                                                 |
| \\      /  F ield         | OpenFOAM: The Open Source CFD Toolbox           |
|  \\    /   O peration     | Version:  5.0                                   |
|   \\  /    A nd           | Web:      www.OpenFOAM.org                      |
|    \\/     M anipulation  |                                                 |
\*---------------------------------------------------------------------------*/
FoamFile
{
    version     2.0;
    format      ascii;
    class       volScalarField;
    location    "700/air";
    object      epsilon;
}
// * * * * * * * * * * * * * * * * * * * * * * * * * * * * * * * * * * * * * //

dimensions      [0 2 -3 0 0 0 0];

internalField   nonuniform List<scalar> 
243000
(
6.84085
8.00479
8.57069
8.77978
8.69909
8.41022
7.98221
7.47474
6.9362
6.41056
5.93714
5.55133
5.2726
5.07004
4.85079
4.56162
4.20025
3.79747
3.38238
2.97822
2.60385
2.19292
1.68392
1.10666
1.4572
2.07775
2.3334
2.65484
2.94105
3.21135
3.83224
4.50014
4.60111
4.49466
4.27625
3.98985
3.67066
3.34459
3.0297
2.73973
2.48416
2.26812
2.08589
1.91932
1.75107
1.58455
1.42759
1.28654
1.16046
1.04845
0.945859
0.834548
0.683627
0.509454
0.657446
1.04502
1.29398
1.54476
1.81683
2.1282
5.00187
5.90567
6.09722
5.97893
5.70722
5.34163
4.92997
4.50657
4.09453
3.71181
3.37019
3.07719
2.82334
2.58112
2.3311
2.08516
1.85847
1.661
1.48982
1.3404
1.20185
1.05875
0.881498
0.670378
0.727612
1.23644
1.61918
1.97466
2.36608
2.84763
5.83356
6.87898
7.18193
7.09009
6.8126
6.41854
5.96268
5.48494
5.01303
4.5688
4.16737
3.81979
3.51382
3.21283
2.89473
2.57837
2.2862
2.03309
1.81563
1.62689
1.45029
1.27086
1.0657
0.819517
0.759245
1.31994
1.82206
2.28128
2.77932
3.40167
6.39271
7.53534
7.93967
7.89263
7.63986
7.253
6.78841
6.28944
5.78729
5.30716
4.86799
4.48501
4.14347
3.79872
3.42556
3.04939
2.69938
2.39502
2.13373
1.90704
1.69377
1.47775
1.24461
0.968201
0.809024
1.31101
1.94574
2.49211
3.07868
3.81292
6.7584
7.94157
8.43752
8.44481
8.23605
7.88062
7.43276
6.93718
6.4275
5.93206
5.47348
5.07091
4.70748
4.33176
3.91515
3.48958
3.09073
2.74098
2.43997
2.17827
1.93111
1.68069
1.42055
1.11893
0.887016
1.21389
2.00126
2.63781
3.30519
4.12609
6.97713
8.13191
8.72211
8.79501
8.64249
8.33439
7.92096
7.44665
6.94662
6.45221
5.98922
5.57989
5.20565
4.80978
4.36007
3.89513
3.45607
3.06733
2.73145
2.43841
2.16062
1.87923
1.59385
1.27095
0.983231
1.10981
2.0043
2.72419
3.4642
4.35168
7.06833
8.16085
8.82413
8.98014
8.89363
8.6431
8.27603
7.83551
7.35798
6.87732
6.42181
6.01596
5.64013
5.23274
4.75945
4.26446
3.79328
3.37219
3.00639
2.68597
2.38085
2.0725
1.7642
1.42294
1.09073
1.03439
1.95779
2.76416
3.56537
4.49631
7.04945
8.08546
8.7875
9.03149
9.01764
8.83128
8.51799
8.11983
7.67398
7.21679
6.7782
6.384
6.01372
5.602
5.11359
4.59713
4.1013
3.65476
3.26397
2.92001
2.59079
2.25958
1.93108
1.57351
1.20779
1.03034
1.86198
2.77048
3.61821
4.56852
6.95336
7.93547
8.65958
8.98043
9.04125
8.91818
8.6628
8.31339
7.90574
7.47925
7.06499
6.68884
6.32973
5.91924
5.42342
4.89347
4.38012
3.91456
3.50369
3.14001
2.78979
2.43987
2.09401
1.72163
1.33101
1.08145
1.73035
2.74486
3.63103
4.57962
6.79317
7.72822
8.46507
8.8525
8.98522
8.93225
8.73004
8.42734
8.0626
7.67241
7.28812
6.93512
6.59131
6.18667
5.69028
5.15422
4.63018
4.15133
3.72561
3.34589
2.97778
2.61296
2.25259
1.86667
1.45797
1.1479
1.60399
2.68655
3.59797
4.52667
6.57789
7.47596
8.2203
8.66318
8.86504
8.878
8.73874
8.48013
8.15452
7.80349
7.45302
7.12702
6.80147
6.40685
5.91584
5.38038
4.85211
4.36554
3.92982
3.53785
3.15482
2.77875
2.4065
2.00899
1.58501
1.22712
1.49296
2.60152
3.52653
4.43798
6.31505
7.18741
7.93721
8.42662
8.69405
8.76835
8.68873
8.48469
8.19611
7.88008
7.56545
7.26845
6.96318
6.58239
6.10202
5.5733
5.04687
4.55788
4.1165
3.71633
3.32149
2.93742
2.55561
2.14849
1.7115
1.31488
1.40512
2.50591
3.45263
4.36641
6.01639
6.87026
7.62513
8.15535
8.48042
8.61331
8.59076
8.43779
8.19673
7.9136
7.63073
7.36349
7.07986
6.71597
6.25095
5.73458
5.2156
4.7293
4.28651
3.88172
3.47825
3.08928
2.70057
2.28512
1.83716
1.409
1.35118
2.41211
3.37715
4.28622
5.71952
6.53446
7.29224
7.85718
8.23196
8.42128
8.4515
8.34813
8.15073
7.91075
7.65711
7.41606
7.15491
6.81055
6.36502
5.86606
5.35975
4.8809
4.44089
4.03496
3.62603
3.23498
2.84176
2.41944
1.96199
1.50998
1.33108
2.32466
3.29768
4.19411
5.43438
6.20992
6.94697
7.53898
7.95619
8.19833
8.27675
8.22131
8.06649
7.86572
7.6492
7.4334
7.19154
6.86918
6.44692
5.96993
5.48105
5.01409
4.58095
4.17723
3.7661
3.37541
2.97978
2.55211
2.08625
1.61383
1.34907
2.23609
3.21439
4.09408
5.15625
5.90618
6.61132
7.20808
7.66055
7.94895
8.07225
8.06201
7.9491
7.78663
7.60372
7.41698
7.19773
6.89526
6.49972
6.04874
5.58155
5.13052
4.70814
4.30984
3.89987
3.51159
3.11548
2.68389
2.21057
1.72073
1.39578
2.1348
3.12736
3.99264
4.88209
5.61761
6.30037
6.87425
7.35119
7.6785
7.84397
7.87472
7.80244
7.67763
7.52758
7.36871
7.1717
6.89575
6.52728
6.10544
5.66369
5.23226
4.82412
4.43412
4.0287
3.64464
3.24984
2.81588
2.33593
1.83071
1.45582
2.03914
3.03819
3.8903
4.61041
5.34083
6.00843
6.56626
7.03517
7.39232
7.59732
7.6644
7.63094
7.54241
7.4247
7.29355
7.11952
6.86982
6.53293
6.14313
5.73011
5.3216
4.93042
4.55148
4.15385
3.77565
3.38388
2.94915
2.4635
1.94428
1.52501
1.95597
2.94879
3.78729
4.3412
5.0741
5.73206
6.27796
6.72861
7.09624
7.33609
7.43564
7.43839
7.38452
7.29856
7.19471
7.04465
6.82308
6.51964
6.16472
5.78347
5.40069
5.02861
4.66297
4.27602
3.90541
3.51867
3.08487
2.59464
2.06246
1.60403
1.88707
2.86088
3.6849
4.07574
4.81719
5.46931
6.00597
6.44221
6.79596
7.06297
7.19198
7.2271
7.20683
7.15129
7.07468
6.94972
6.75812
6.49008
6.17245
5.82543
5.47059
5.11934
4.76883
4.39506
4.03465
3.65526
3.22432
2.73088
2.18641
1.69203
1.83434
2.77648
3.58448
3.81564
4.57096
5.21955
5.74845
6.1734
6.51377
6.78114
6.93459
6.9987
7.01001
6.98368
6.93368
6.83535
6.67538
6.44459
6.1663
5.85546
5.53032
5.20133
4.86737
4.51051
4.1642
3.79497
3.3696
2.87377
2.31739
1.78978
1.80228
2.69889
3.48818
3.56484
4.33776
4.98325
5.50473
5.92017
6.24904
6.50759
6.6668
6.75414
6.79251
6.79387
6.76964
6.69874
6.57162
6.37971
6.14215
5.86825
5.57484
5.26979
4.95498
4.62491
4.29648
3.94056
3.5237
3.02639
2.45764
1.89872
1.79578
2.63385
3.40037
3.3322
4.12142
4.76147
5.27374
5.67984
6.00123
6.25594
6.41497
6.50418
6.55558
6.58012
6.57999
6.53601
6.4416
6.28897
6.09312
5.85817
5.5982
5.32182
5.03976
4.74585
4.43976
4.09987
3.69335
3.19565
2.61202
2.02122
1.81674
2.58625
3.32565
3.13054
3.92714
4.55636
5.05753
5.45635
5.77348
6.02667
6.18928
6.28485
6.34661
6.38372
6.39821
6.37683
6.31299
6.20245
6.05227
5.86562
5.65119
5.41615
5.16691
4.90235
4.61736
4.2926
3.89556
3.3959
2.79335
2.16471
1.86735
2.56458
3.27134
2.97565
3.76713
4.38052
4.86778
5.25834
5.57242
5.82761
5.99891
6.10759
6.1877
6.24588
6.28286
6.29226
6.26745
6.20425
6.10461
5.96937
5.80203
5.60684
5.38894
5.14832
4.87902
4.56316
4.16784
3.65848
3.02758
2.34641
1.9603
2.58482
3.25418
2.90947
3.67172
4.26435
4.73831
5.12175
5.43765
5.70321
5.89918
6.03613
6.1511
6.24687
6.32705
6.38663
6.41909
6.41796
6.38048
6.30227
6.18317
6.02453
5.83079
5.60234
5.33397
5.01012
4.59993
4.06128
3.37901
2.61897
2.13994
2.68356
3.31107
3.06021
3.78644
4.36468
4.8413
5.24168
5.58426
5.8879
6.14834
6.35224
6.54228
6.71664
6.88408
7.03835
7.16579
7.25285
7.28748
7.26399
7.17806
7.03131
6.83175
6.58136
6.27625
5.90484
5.43958
4.83745
4.06377
3.17441
2.57864
3.02787
3.60116
4.34926
5.10475
5.73318
6.28239
6.77618
7.2145
7.61975
8.01936
8.37199
8.71276
9.02217
9.35672
9.68231
9.95123
10.1365
10.2251
10.2151
10.104
9.90022
9.62435
9.28229
8.85947
8.36112
7.77202
7.0513
6.15177
5.09432
4.32317
4.63689
5.12562
13.94
14.7271
15.3782
15.9547
16.4763
16.7807
17.0167
17.2816
17.59
17.8812
18.0701
18.5
18.9415
19.2147
19.3249
19.3302
19.2192
19.0183
18.7436
18.4614
18.1598
17.7179
17.2462
16.7835
16.261
15.6415
14.8096
14.2039
14.3978
14.7674
11.927
15.2763
16.9072
17.7414
17.8906
17.5066
16.7322
15.7032
14.5306
13.3059
12.1008
10.9949
10.0416
9.15753
8.15197
6.99187
5.75477
4.55875
3.48749
2.59282
1.95276
1.49826
0.28862
1.23293
1.81934
2.33937
2.50951
2.91635
3.49513
4.34341
7.50181
8.83157
9.76001
10.2945
10.4555
10.3045
9.89717
9.31028
8.61264
7.86293
7.10665
6.37414
5.70901
5.06139
4.37672
3.69606
3.06505
2.51593
2.05008
1.65419
1.30732
1.01955
0.768417
0.793799
0.879699
1.17486
1.437
1.77756
2.31549
3.23544
6.61855
7.64561
8.36162
8.80015
8.97157
8.90992
8.6378
8.20468
7.66059
7.05185
6.42088
5.79849
5.21725
4.62612
3.98621
3.36155
2.80485
2.34375
1.96743
1.64786
1.36414
1.10742
0.871443
0.771347
0.851258
1.17012
1.48493
1.81202
2.30737
3.18755
6.20013
7.10805
7.73747
8.1415
8.33178
8.33383
8.15138
7.81851
7.37287
6.84796
6.29388
5.75588
5.2342
4.67017
4.03781
3.41579
2.86725
2.42202
2.06746
1.77335
1.51316
1.26453
1.00276
0.815791
0.845233
1.20587
1.57703
1.91346
2.37283
3.19886
5.90576
6.72314
7.30395
7.69829
7.91427
7.96969
7.86117
7.60799
7.23859
6.78674
6.30486
5.82412
5.3482
4.80781
4.17788
3.55005
2.99695
2.55211
2.20364
1.92145
1.67745
1.43365
1.15264
0.893962
0.83404
1.22147
1.6519
2.01101
2.4443
3.21883
5.65065
6.3797
6.9308
7.32639
7.57047
7.67251
7.62804
7.44271
7.13918
6.75521
6.33082
5.90511
5.46995
4.94893
4.32152
3.68901
3.13143
2.68548
2.34069
2.06837
1.83916
1.60136
1.31034
0.999984
0.864435
1.17762
1.70289
2.09423
2.51203
3.23989
5.40611
6.05325
6.58222
6.98432
7.25628
7.39963
7.41051
7.28483
7.04079
6.71695
6.34688
5.96992
5.57163
5.06802
4.44533
3.81212
3.2536
2.8088
2.46901
2.20782
1.99342
1.76406
1.47026
1.12641
0.922201
1.10618
1.73404
2.16129
2.57275
3.25674
5.16209
5.73731
6.24814
6.65914
6.95742
7.13793
7.19474
7.12254
6.9326
6.65957
6.34713
6.01099
5.64483
5.15732
4.54254
3.91352
3.35861
2.91841
2.58609
2.33788
2.13918
1.92076
1.62915
1.26597
0.998937
1.05393
1.74748
2.21393
2.62455
3.26546
4.91775
5.43409
5.92987
6.34815
6.6698
6.8828
6.97816
6.95289
6.81105
6.58454
6.32005
6.0283
5.68676
5.21516
4.61219
3.99247
3.44587
3.01391
2.69191
2.4584
2.27657
2.07118
1.7854
1.41319
1.09138
1.06281
1.73693
2.25363
2.66566
3.2645
4.67732
5.14769
5.63008
6.05283
6.39338
6.63387
6.76154
6.77587
6.67654
6.49306
6.26753
6.02079
5.70367
5.2436
4.65599
4.05035
3.51639
3.09625
2.78736
2.57004
2.40615
2.2157
1.93856
1.56416
1.20103
1.11149
1.6905
2.27983
2.69414
3.24525
4.44477
4.88058
5.35041
5.7747
6.1294
6.39206
6.54689
6.59273
6.53061
6.38542
6.19641
5.98135
5.69391
5.25057
4.6767
4.08941
3.57198
3.16683
2.87367
2.67384
2.52881
2.35506
2.08886
1.71666
1.32438
1.17544
1.63332
2.2923
2.70964
3.20934
4.2237
4.63486
5.09132
5.51419
5.87852
6.15811
6.33519
6.40616
6.37554
6.26359
6.10802
5.91996
5.65296
5.23013
4.67898
4.11251
3.61481
3.22746
2.95211
2.77112
2.64568
2.49036
2.23708
1.86975
1.45845
1.24511
1.58497
2.29409
2.71461
3.16305
4.02041
4.41107
4.85264
5.27104
5.64077
5.93247
6.12699
6.21821
6.21384
6.13033
6.00409
5.83975
5.59058
5.18749
4.66184
4.12207
3.64721
3.28016
3.02432
2.86377
2.75848
2.62318
2.38476
2.02378
1.60095
1.3256
1.55327
2.2867
2.71131
3.11654
3.84228
4.21132
4.63524
5.04477
5.41581
5.71537
5.92288
6.0304
6.04745
5.98847
5.88748
5.74405
5.51099
5.12876
4.63127
4.11957
3.6718
3.32742
3.09237
2.95384
2.86965
2.75595
2.53427
2.1803
1.75038
1.41796
1.54462
2.27238
2.70073
3.07211
3.70107
4.0402
4.44041
4.83538
5.2032
5.50681
5.72349
5.84418
5.87833
5.84091
5.76175
5.63689
5.41912
5.05908
4.59195
4.11191
3.69201
3.37244
3.15916
3.04416
2.98255
2.8922
2.68895
2.34224
1.90579
1.52183
1.55814
2.2553
2.685
3.02842
3.58963
3.90614
4.27003
4.64482
5.00332
5.30693
5.52948
5.66088
5.70917
5.69087
5.6312
5.52335
5.32093
4.98469
4.54969
4.10362
3.71333
3.41957
3.22898
3.13913
3.10177
3.03664
2.85353
2.51421
2.06908
1.63745
1.589
2.23685
2.66564
2.98593
3.49801
3.80328
4.13078
4.47531
4.81834
5.11732
5.34257
5.48263
5.54337
5.54277
5.50116
5.40984
5.22388
4.91329
4.51195
4.1001
3.74177
3.47488
3.30844
3.24531
3.2338
3.19584
3.03465
2.70277
2.24498
1.7694
1.63616
2.21657
2.64428
2.94619
3.41927
3.72286
4.02142
4.32967
4.65171
4.94162
5.16672
5.31376
5.38642
5.40252
5.37928
5.30497
5.13784
4.85481
4.48893
4.11367
3.78755
3.54785
3.40864
3.37273
3.38831
3.37944
3.24198
2.91739
2.44158
1.92137
1.69998
2.19469
2.62162
2.90954
3.34995
3.65681
3.93433
4.21384
4.50641
4.7855
5.0083
5.1615
5.24645
5.27949
5.27647
5.22098
5.07602
4.82377
4.49562
4.15854
3.86602
3.65412
3.54418
3.53755
3.58169
3.60205
3.4898
3.17157
2.67027
2.09929
1.78311
2.17325
2.59794
2.87621
3.28598
3.59888
3.86394
4.12387
4.39309
4.65636
4.87682
5.03677
5.13579
5.18831
5.20889
5.17634
5.0596
4.84248
4.55568
4.25953
4.00381
3.82075
3.74192
3.76618
3.84021
3.88799
3.80051
3.48495
2.94763
2.31091
1.89032
2.15938
2.57524
2.84712
3.2229
3.54598
3.80741
4.05818
4.31435
4.56637
4.78679
4.9575
5.07461
5.15283
5.2041
5.20179
5.12103
4.94771
4.70964
4.46071
4.24443
4.09707
4.05177
4.10705
4.20918
4.27979
4.21109
3.88853
3.29759
2.5691
2.02181
2.165
2.5583
2.82486
3.15882
3.49804
3.76522
4.01824
4.27287
4.52354
4.75275
4.9428
5.09683
5.21517
5.30855
5.35244
5.32155
5.20682
5.03439
4.84755
4.68264
4.57918
4.56945
4.65126
4.77305
4.85496
4.78691
4.43493
3.75776
2.89426
2.18236
2.19574
2.55984
2.81794
3.09701
3.45948
3.74237
4.00936
4.28144
4.56112
4.83689
5.0689
5.27289
5.45186
5.61286
5.7322
5.78492
5.76299
5.69301
5.59896
5.5087
5.46165
5.48525
5.57873
5.69794
5.76252
5.65138
5.21897
4.39486
3.32333
2.39012
2.25734
2.58782
2.83642
3.04939
3.44304
3.76559
4.08981
4.42043
4.76266
5.11585
5.4307
5.73095
6.02442
6.31154
6.56776
6.77459
6.91605
7.01624
7.07654
7.11084
7.14462
7.19648
7.27046
7.33087
7.30141
7.04973
6.42525
5.33687
3.93153
2.67973
2.38453
2.66792
2.90768
3.04348
3.51674
3.93338
4.35816
4.79855
5.26532
5.77223
6.25806
6.74854
7.2652
7.79427
8.31878
8.82278
9.28068
9.71448
10.0744
10.3364
10.5011
10.5681
10.5506
10.4132
10.0904
9.47534
8.43112
6.856
4.8967
3.13752
2.64945
2.88375
3.12117
3.25474
3.8683
4.46021
5.0808
5.74687
6.47702
7.30027
8.1505
9.03492
10.0132
11.0248
12.0561
13.1604
14.2525
15.3562
16.3131
17.0033
17.3707
17.3812
17.0579
16.391
15.3542
13.9099
11.992
9.54268
6.67535
4.04132
3.26312
3.45606
3.7137
4.1651
5.10784
6.08731
7.14997
8.31934
9.63135
11.1355
12.7739
14.4705
16.3342
18.2785
20.3029
22.4605
24.6938
26.9412
28.8649
30.1297
30.6114
30.2458
29.1319
27.3291
24.9037
21.9485
18.5116
14.6249
10.3894
6.32056
4.97469
5.11614
5.42815
7.75048
9.49856
11.4025
13.4712
15.7221
18.1854
20.8794
23.8841
26.9346
30.2129
33.5665
37.0144
40.5659
44.1108
47.347
49.7419
50.7571
50.3805
48.6921
46.037
42.6507
38.6975
34.2945
29.4444
24.1198
18.422
12.6663
10.2596
10.3187
10.7731
20.0326
23.338
26.8258
30.3834
34.0479
37.8531
41.7408
45.9236
50.0076
54.1984
58.2829
62.1467
65.4356
67.9204
69.0598
67.9626
65.4317
61.9951
58.0902
54.0547
50.1798
46.6117
43.3335
40.1095
36.4992
31.9185
26.8163
24.0285
24.2947
25.3316
38.4002
42.539
46.6989
50.6699
54.5092
58.0384
61.2842
64.4726
67.1317
69.3621
71.1151
72.0266
71.4791
69.4285
65.6474
61.1401
56.5975
52.0653
47.9303
44.4264
41.6195
39.5627
38.3027
37.6518
37.2497
36.8662
36.5409
36.8988
38.0035
39.8209
16.5529
22.0258
24.488
25.9444
26.4329
26.0948
25.1084
23.655
21.8848
19.9231
17.8737
15.825
13.8462
11.8331
9.63478
7.45508
5.49582
3.95777
2.79546
1.97967
1.68733
0.311029
1.23441
1.45165
2.07864
2.60361
2.73512
3.03959
3.45485
5.22645
9.33288
10.9942
12.0675
12.811
13.1701
13.1697
12.8327
12.2284
11.4278
10.4946
9.48322
8.42438
7.36089
6.24329
5.13263
4.16997
3.37481
2.74802
2.18308
1.67423
1.16318
0.700699
0.57403
0.764908
0.917966
1.20501
1.46293
1.89378
2.47536
3.74322
8.27562
9.36854
10.1236
10.6212
10.8704
10.896
10.6902
10.2801
9.70553
9.00719
8.22757
7.3941
6.53438
5.58732
4.65065
3.86113
3.22378
2.71867
2.25129
1.79029
1.27051
0.834832
0.610569
0.663842
0.803918
1.09288
1.43397
1.91541
2.56852
3.7407
7.80018
8.68107
9.32197
9.74182
9.96695
10.0236
9.89784
9.59742
9.14696
8.57387
7.91186
7.19142
6.44204
5.57453
4.68294
3.92625
3.315
2.83118
2.3909
1.94662
1.44218
1.00062
0.715237
0.660398
0.775807
1.09806
1.49445
2.00886
2.70736
3.79832
7.42505
8.17732
8.76255
9.1638
9.40365
9.50263
9.44765
9.23254
8.87406
8.39017
7.81428
7.19837
6.51294
5.68483
4.81474
4.06072
3.44709
2.9629
2.5357
2.10606
1.62564
1.18018
0.848417
0.703799
0.755724
1.10534
1.55952
2.1034
2.8241
3.84081
7.05083
7.70887
8.26411
8.67346
8.94643
9.0939
9.10554
8.96524
8.68375
8.2746
7.78348
7.23673
6.60522
5.80723
4.95083
4.19421
3.57459
3.08848
2.67436
2.2631
1.80734
1.36353
0.999413
0.781554
0.776723
1.0979
1.61562
2.18796
2.90552
3.86486
6.65336
7.24169
7.78295
8.21376
8.52759
8.72653
8.79792
8.72689
8.51365
8.17218
7.75623
7.26918
6.68009
5.90994
5.06732
4.31015
3.68734
3.20265
2.80437
2.41707
1.98404
1.54658
1.16101
0.886522
0.823578
1.08249
1.66124
2.25646
2.95844
3.87182
6.23848
6.77595
7.31264
7.76997
8.12657
8.37566
8.50111
8.49308
8.34168
8.06287
7.71059
7.28383
6.72901
5.98523
5.15929
4.40584
3.78432
3.30549
2.92549
2.56613
2.15543
1.72624
1.32775
1.01042
0.894926
1.08559
1.69692
2.3114
2.98909
3.85986
5.81407
6.32127
6.8592
7.34151
7.7384
8.0338
8.20861
8.25435
8.16009
7.93921
7.63989
7.27494
6.75242
6.03234
5.22786
4.4829
3.86732
3.39869
3.03905
2.7094
2.32214
1.90342
1.49645
1.14629
0.97819
1.11017
1.72477
2.35683
3.00362
3.82484
5.40069
5.88921
6.42938
6.93208
7.36359
7.69987
7.91837
8.00929
7.96703
7.79886
7.55053
7.23223
6.75413
6.05834
5.27674
4.54436
3.9389
3.4844
3.14746
2.84763
2.4855
2.07898
1.66545
1.28974
1.07046
1.15455
1.7445
2.39434
3.00969
3.7711
5.01149
5.48724
6.02776
6.54532
7.00461
7.37513
7.63089
7.75955
7.76301
7.6429
7.44316
7.16405
6.72794
6.06715
5.30962
4.59351
4.002
3.56477
3.25405
2.98267
2.64762
2.25455
1.83518
1.43894
1.17204
1.21094
1.75791
2.42357
3.0074
3.70233
4.65506
5.12096
5.65795
6.18431
6.66397
7.06136
7.34768
7.50845
7.54933
7.47383
7.31988
7.07753
6.67851
6.06068
5.32968
4.63382
4.05999
3.64273
3.3604
3.11757
2.81125
2.43303
2.00838
1.59391
1.28383
1.27434
1.76775
2.44402
2.99654
3.62254
4.33922
4.795
5.32281
5.85122
6.34344
6.76011
7.07023
7.25778
7.32948
7.29502
7.18381
6.97794
6.61689
6.04003
5.34111
4.66941
4.11711
3.72258
3.47035
3.25667
2.98015
2.61861
2.18916
1.75665
1.40837
1.34267
1.77622
2.45593
2.97844
3.53578
4.07613
4.51512
5.0253
5.54775
6.04432
6.47271
6.80009
7.0094
7.10743
7.11028
7.03972
6.87084
6.54846
6.01119
5.34936
4.70564
4.17914
3.81092
3.59039
3.4065
3.16026
2.81701
2.38461
1.93191
1.54452
1.4162
1.78745
2.46058
2.95426
3.44502
3.86085
4.28227
4.76986
5.2761
5.76826
6.20084
6.53935
6.76617
6.88818
6.92388
6.89362
6.76325
6.47957
5.98156
5.36021
4.75006
4.25415
3.91798
3.73017
3.57634
3.36062
3.03649
2.60217
2.125
1.69543
1.50335
1.80455
2.45902
2.92577
3.36195
3.68103
4.09162
4.55354
5.04034
5.51823
5.9474
6.29137
6.53239
6.67672
6.74363
6.753
6.66305
6.41848
5.96419
5.38484
4.81429
4.35455
4.05739
3.90314
3.77905
3.59382
3.28923
2.852
2.34498
1.86595
1.60692
1.8315
2.45197
2.89593
3.28712
3.53139
3.93668
4.37561
4.83813
5.29909
5.71753
6.06203
6.31481
6.48095
6.58015
6.62798
6.58158
6.37684
5.9742
5.4401
4.91639
4.5005
4.24804
4.12807
4.03349
3.87823
3.59281
3.14996
2.60472
2.06318
1.7271
1.87092
2.44129
2.86632
3.22443
3.4084
3.81241
4.23158
4.67243
5.11406
5.5191
5.86024
6.12406
6.31279
6.44706
6.5351
6.53597
6.38231
6.02574
5.55038
5.08474
4.72567
4.52189
4.43415
4.3689
4.24159
3.97295
3.51931
2.92339
2.29851
1.86406
1.93035
2.43162
2.83842
3.17205
3.30944
3.71484
4.11799
4.54072
4.96619
5.36013
5.69897
5.97596
6.18945
6.36536
6.4998
6.55243
6.45056
6.1574
5.75625
5.36539
5.07893
4.92706
4.86996
4.83215
4.72772
4.46927
3.99499
3.32914
2.58895
2.02809
2.00864
2.43093
2.81571
3.12985
3.23215
3.64117
4.03315
4.44311
4.85808
5.24954
5.59536
5.89434
6.13788
6.357
6.55915
6.6751
6.63585
6.42545
6.12485
5.83773
5.63619
5.53922
5.51466
5.50059
5.40833
5.14493
4.63122
3.86445
2.96166
2.23377
2.09612
2.44375
2.8069
3.1012
3.17483
3.5909
3.97826
4.38179
4.79416
5.19352
5.55441
5.88818
6.20421
6.49281
6.77091
6.97144
7.0254
6.92745
6.77259
6.62085
6.52305
6.49096
6.50354
6.50572
6.40448
6.10479
5.51454
4.59563
3.46018
2.49796
2.21101
2.47867
2.81993
3.09847
3.13901
3.56686
3.95404
4.36202
4.78551
5.22805
5.66838
6.07718
6.46771
6.84944
7.23808
7.5618
7.76274
7.83973
7.88642
7.91385
7.9559
8.01765
8.07588
8.07867
7.92713
7.52724
6.78592
5.62959
4.15614
2.8504
2.37142
2.54944
2.86495
3.12655
3.13258
3.57584
3.99684
4.45938
4.95603
5.47718
6.01589
6.53366
7.05493
7.59127
8.15318
8.67123
9.10387
9.43854
9.77981
10.0767
10.3372
10.5441
10.6589
10.6254
10.3415
9.71764
8.68388
7.14446
5.17681
3.35438
2.61088
2.69256
2.96785
3.21393
3.2017
3.71176
4.22446
4.786
5.39755
6.05083
6.75337
7.46211
8.20165
8.99178
9.83677
10.6698
11.4628
12.2117
13.038
13.777
14.3891
14.8141
14.9878
14.8271
14.2464
13.1812
11.6024
9.43342
6.75527
4.16203
3.02632
2.98935
3.22021
3.45239
3.47658
4.11721
4.79915
5.54428
6.36356
7.25818
8.24595
9.2919
10.4041
11.6207
12.9365
14.2886
15.6701
17.0993
18.7165
20.1464
21.2779
21.9753
22.1449
21.649
20.4141
18.5125
16.0258
12.9496
9.31567
5.62303
3.86465
3.62533
3.80982
4.03564
4.28157
5.19115
6.18671
7.28249
8.49417
9.82932
11.3203
12.9602
14.7056
16.6339
18.7175
20.9005
23.2077
25.673
28.4282
30.7187
32.402
32.9924
32.4011
30.9217
28.7001
25.8225
22.3587
18.2882
13.5971
8.52256
5.75896
5.14226
5.23949
5.44502
6.65557
8.08013
9.69961
11.4604
13.3838
15.4895
17.8171
20.4246
23.154
26.1496
29.3381
32.6687
36.1842
39.8708
43.6873
46.3193
46.9358
46.0588
44.0969
41.4159
38.2454
34.6403
30.5719
25.9092
20.5329
14.3685
10.2998
8.98452
8.90285
9.04068
13.626
15.9978
18.6888
21.516
24.4992
27.6701
31.0678
34.8512
38.7022
42.8424
47.1082
51.4362
55.7736
59.7734
62.6321
62.4725
60.575
57.5171
53.9301
50.1644
46.4809
42.8819
39.2075
35.1431
30.328
24.5404
20.0842
18.2106
18.0408
18.1611
30.0309
33.8083
37.7463
41.5675
45.3351
49.1462
53.0536
57.2517
61.4073
65.7113
69.8913
73.7446
76.5491
77.138
75.4578
71.1358
66.0541
60.7272
55.8086
51.5504
48.1356
45.5224
43.4981
41.6493
39.3906
36.3881
33.7938
33.1347
34.0653
35.5512
43.8374
48.9605
54.0549
58.6991
62.8691
66.6634
69.997
73.2338
76.1595
78.7775
80.8201
81.5245
79.9497
75.9648
70.1004
62.8039
55.9766
49.859
44.8648
41.1021
38.5744
37.1959
36.8325
37.2075
37.8121
38.3339
39.0386
40.5545
42.7698
46.0059
21.5358
28.8251
31.8091
33.5301
34.2783
34.0221
32.9033
31.1068
28.7951
26.1093
23.1754
20.0804
16.9285
13.6167
10.2637
7.57178
5.73712
5.13776
4.83219
4.13556
2.57425
1.44968
1.2667
1.68744
2.45783
3.15307
3.33247
3.70455
4.20718
5.92321
11.7909
13.7075
14.751
15.4346
15.8456
15.9119
15.6074
14.9725
14.0679
12.9481
11.6763
10.278
8.78473
7.17026
5.75434
4.79171
4.13923
3.77964
3.33614
2.89095
1.95968
0.918621
0.66602
0.843257
1.09356
1.44479
1.76514
2.43698
3.22471
4.64723
10.5594
11.6179
12.2698
12.6706
12.881
12.9045
12.708
12.29
11.6693
10.8691
9.93341
8.87866
7.7173
6.41488
5.30897
4.57368
4.03267
3.61367
3.10135
2.64849
1.90113
1.05263
0.714826
0.76781
0.959141
1.30935
1.7491
2.47677
3.39471
4.71718
10.0296
10.7951
11.314
11.6281
11.7869
11.8152
11.6841
11.3788
10.9004
10.2544
9.47397
8.57016
7.56133
6.38926
5.37045
4.66391
4.10603
3.60849
3.06793
2.58164
1.94823
1.27408
0.862912
0.815535
0.983514
1.35167
1.84576
2.59679
3.57844
4.82994
9.61123
10.2161
10.6793
10.9741
11.1429
11.2062
11.1398
10.9197
10.5407
9.99642
9.31605
8.53541
7.61629
6.49943
5.52072
4.80249
4.21028
3.66625
3.10653
2.59791
2.09642
1.50992
1.05073
0.911953
1.03768
1.41446
1.95588
2.71691
3.71893
4.90861
9.16913
9.67153
10.1122
10.426
10.6365
10.7525
10.7535
10.6089
10.31
9.84503
9.25788
8.56131
7.69527
6.62238
5.67103
4.93683
4.31664
3.74989
3.20664
2.70769
2.26397
1.73544
1.25208
1.03743
1.11482
1.48066
2.05922
2.8212
3.81583
4.94684
8.66543
9.11174
9.55487
9.90874
10.1765
10.355
10.4208
10.3479
10.1191
9.72333
9.21819
8.58635
7.76066
6.72923
5.8044
5.05848
4.42085
3.85044
3.33949
2.84542
2.42685
1.94036
1.45087
1.17725
1.2051
1.54504
2.15001
2.90772
3.87747
4.95266
8.11978
8.53726
8.99928
9.40524
9.73529
9.978
10.1055
10.0994
9.9342
9.60196
9.16584
8.59574
7.80351
6.8176
5.92184
5.16954
4.52411
3.96402
3.48693
2.99849
2.58289
2.12312
1.63717
1.3192
1.30027
1.60721
2.22742
2.9785
3.91147
4.92122
7.55728
7.96422
8.45631
8.91515
9.30649
9.60984
9.79555
9.84737
9.74198
9.46918
9.08774
8.57908
7.82551
6.89288
6.02875
5.27456
4.62938
4.09067
3.64309
3.16315
2.73685
2.28877
1.80878
1.45668
1.39093
1.6664
2.29195
3.03592
3.92413
4.85978
7.00167
7.41795
7.93815
8.44327
8.8896
9.24779
9.48623
9.58785
9.53812
9.3214
8.99195
8.5352
7.83374
6.96199
6.13109
5.37834
4.73993
4.23238
3.80695
3.33986
2.89688
2.44536
1.96853
1.5873
1.47811
1.72121
2.34319
3.07954
3.91289
4.77612
6.47126
6.90526
7.45095
7.99402
8.48677
8.89236
9.17676
9.3214
9.32221
9.15871
8.8823
8.47278
7.83755
7.03283
6.23433
5.48558
4.85927
4.38745
3.98008
3.53003
3.07267
2.6037
2.12087
1.71359
1.56092
1.77042
2.3808
3.10836
3.8753
4.67495
5.97699
6.43271
6.99883
7.57144
8.10128
8.54577
8.86899
9.05146
9.0955
8.985
8.76334
8.40373
7.8467
7.11183
6.3433
5.6015
4.99266
4.55919
4.16891
3.73451
3.27118
2.77689
2.27283
1.83963
1.63965
1.81302
2.40534
3.1231
3.83077
4.56281
5.53574
6.00803
6.58665
7.17968
7.73653
8.21077
8.56551
8.78106
8.86289
8.80578
8.64221
8.34098
7.86988
7.20381
6.463
5.73279
5.14891
4.75447
4.38187
3.9631
3.49776
2.97847
2.43822
1.96845
1.71856
1.85101
2.4183
3.12561
3.78154
4.44593
5.15482
5.63652
6.21931
6.82284
7.39612
7.89079
8.27
8.51438
8.63127
8.62811
8.52791
8.29251
7.91194
7.31323
6.60023
5.88916
5.34288
4.98363
4.63173
4.23021
3.76247
3.22093
2.63502
2.11191
1.80229
1.89124
2.42292
3.11082
3.72542
4.32788
4.83216
5.32376
5.90244
6.5053
7.08427
7.59038
7.98765
8.25791
8.41064
8.46041
8.43146
8.27871
7.98316
7.44715
6.76583
6.08526
5.59127
5.26153
4.93536
4.55342
4.08505
3.51943
2.87644
2.28133
1.89781
1.93783
2.42042
3.08448
3.66406
4.21057
4.55938
5.05757
5.63304
6.23271
6.80627
7.3154
7.72544
8.02018
8.21105
8.31676
8.36462
8.30005
8.09329
7.61746
6.97745
6.34353
5.91242
5.61273
5.3169
4.95674
4.49006
3.89537
3.18413
2.49276
2.0152
1.99452
2.41895
3.05188
3.60162
4.10744
4.32118
4.83179
5.403
5.99721
6.56725
7.07389
7.4929
7.81255
8.04558
8.21286
8.34572
8.37699
8.25591
7.84457
7.2635
6.69994
6.33882
6.07441
5.81223
5.47515
5.01175
4.38107
3.58671
2.76987
2.17024
2.06195
2.42743
3.01803
3.54096
4.01615
4.1189
4.64367
5.2106
5.79932
6.36597
6.87433
7.30323
7.6508
7.93233
8.17136
8.39882
8.5351
8.4971
8.1623
7.66905
7.2133
6.91857
6.69991
6.47571
6.16177
5.7007
5.0205
4.12208
3.14409
2.37807
2.15482
2.45229
2.98926
3.48571
3.93744
3.95272
4.49155
5.05554
5.6403
6.20777
6.72245
7.17253
7.55638
7.88793
8.21513
8.55649
8.80723
8.8657
8.62568
8.26505
7.94319
7.7282
7.57029
7.39108
7.09965
6.62428
5.87552
4.84382
3.65628
2.65878
2.28626
2.50376
2.98539
3.44519
3.87385
3.82307
4.37543
4.93955
5.52376
6.09567
6.62583
7.10196
7.53048
7.96214
8.40355
8.86867
9.2503
9.43597
9.33001
9.1606
8.98931
8.88675
8.81189
8.69051
8.42167
7.89103
7.03426
5.82656
4.3661
3.0454
2.46545
2.58882
3.01066
3.44257
3.84097
3.73234
4.29824
4.86786
5.45715
6.03928
6.59527
7.14142
7.6884
8.23003
8.79997
9.41686
9.96169
10.3234
10.4234
10.4921
10.5221
10.5805
10.6235
10.5843
10.2933
9.64894
8.61986
7.17273
5.35973
3.5925
2.72212
2.72019
3.07541
3.47778
3.85402
3.68704
4.26772
4.84631
5.4538
6.09476
6.75593
7.42296
8.09414
8.78095
9.52285
10.3389
11.1029
11.7203
12.1004
12.5
12.8152
13.1012
13.3218
13.329
12.9284
12.0869
10.7938
9.01825
6.75988
4.39673
3.12417
2.93712
3.20276
3.5706
3.92082
3.71284
4.32926
4.97931
5.68518
6.43244
7.21554
8.02451
8.87608
9.77416
10.7627
11.8609
12.9315
13.8949
14.6795
15.5694
16.2826
16.8933
17.264
17.1756
16.5597
15.4102
13.7415
11.535
8.73852
5.62186
3.78045
3.30796
3.47416
3.78039
4.09083
3.93846
4.65201
5.4179
6.26625
7.17262
8.13763
9.1656
10.2942
11.5041
12.8495
14.3494
15.8594
17.3207
18.693
20.2883
21.5214
22.4395
22.697
22.3246
21.3392
19.7659
17.6289
14.9124
11.5218
7.53677
4.9183
4.02249
4.02585
4.25619
4.53127
4.5307
5.42211
6.40366
7.48214
8.65185
9.91374
11.2822
12.833
14.5049
16.3693
18.4443
20.5818
22.7441
24.9326
27.4489
29.1718
29.8508
29.6308
28.6988
27.1737
25.1076
22.4973
19.2953
15.3691
10.5516
6.99353
5.49177
5.18117
5.29202
5.51102
6.01531
7.19421
8.54552
10.0167
11.615
13.3415
15.2271
17.3924
19.7226
22.3114
25.1682
28.1418
31.2007
34.3643
37.786
38.9648
38.7493
37.4916
35.6809
33.4834
30.9721
28.0705
24.643
20.4707
15.1901
10.776
8.51905
7.77014
7.61341
7.69426
9.69126
11.3423
13.2989
15.3735
17.593
19.9689
22.5441
25.4923
28.6354
32.0941
35.8495
39.734
43.658
47.5154
50.6025
49.8015
47.668
44.7998
41.8832
39.0341
36.3022
33.5187
30.4263
26.6682
21.7639
17.1338
14.3531
13.2927
12.898
12.6343
18.3519
20.7398
23.4751
26.2312
29.0966
32.0974
35.2946
38.9051
42.7104
46.8473
51.2173
55.5909
59.6428
62.5557
62.9437
58.6381
53.8782
49.1323
45.1369
41.8506
39.2592
37.13
35.1175
32.7578
29.4852
25.9645
23.6537
22.9323
23.0396
23.1369
33.6918
37.3156
40.8444
44.0285
47.1058
50.1917
53.3973
56.9467
60.6576
64.6216
68.5909
72.1382
74.2421
73.2393
69.4864
61.1389
53.7932
47.5528
42.8768
39.5327
37.392
36.2413
35.7901
35.5708
34.9726
33.9798
33.6145
34.3658
35.9469
37.8806
42.1347
47.3019
52.3805
56.9649
60.7799
63.9564
66.8483
69.7885
72.6626
75.4221
77.7103
78.7328
76.8122
71.7391
64.2686
53.5262
45.128
38.5602
33.9858
30.989
29.3842
28.9549
29.5729
30.8895
32.3212
33.7114
35.4462
37.8203
40.8355
44.8427
27.0279
35.7637
39.4108
41.2574
42.139
41.938
40.684
38.539
35.6611
32.1904
28.2727
23.9886
19.4978
14.7205
10.5836
8.74967
9.5431
12.3217
12.7008
11.5944
8.56056
4.22371
1.73032
2.26996
3.16589
3.88448
4.30715
4.69221
5.94731
7.50865
14.4825
16.6006
17.6961
18.313
18.7066
18.8121
18.5198
17.8396
16.8167
15.4914
13.9327
12.1499
10.1785
8.03877
6.56591
6.13313
6.42606
7.39669
7.55897
7.21409
5.9783
3.78659
1.50096
1.51991
1.76644
2.14199
2.69083
3.54173
4.55549
6.03951
12.9172
13.9851
14.5693
14.9002
15.0679
15.0847
14.8897
14.4549
13.7797
12.8675
11.761
10.4597
8.96985
7.31788
6.26053
5.89679
5.83962
6.23348
6.29117
6.10518