/*--------------------------------*- C++ -*----------------------------------*\
| =========                 |                                                 |
| \\      /  F ield         | OpenFOAM: The Open Source CFD Toolbox           |
|  \\    /   O peration     | Version:  5.0                                   |
|   \\  /    A nd           | Web:      www.OpenFOAM.org                      |
|    \\/     M anipulation  |                                                 |
\*---------------------------------------------------------------------------*/
FoamFile
{
    version     2.0;
    format      ascii;
    class       volScalarField;
    location    "700/air";
    object      k;
}
// * * * * * * * * * * * * * * * * * * * * * * * * * * * * * * * * * * * * * //

dimensions      [0 2 -2 0 0 0 0];

internalField   nonuniform List<scalar> 
243000
(
0.116976
0.126687
0.129391
0.128397
0.124726
0.119329
0.112922
0.10607
0.0992061
0.0927203
0.086967
0.0822834
0.078867
0.0764233
0.0740119
0.0710542
0.0674483
0.0634198
0.0591957
0.0549675
0.0509253
0.0461492
0.0394372
0.030335
0.0367895
0.0479273
0.0529775
0.0591124
0.0648737
0.0705081
0.184805
0.205779
0.208938
0.205758
0.199082
0.190128
0.179878
0.169086
0.158319
0.148064
0.13872
0.130572
0.123498
0.116854
0.109941
0.102865
0.0959573
0.089527
0.0835777
0.0781107
0.072942
0.0671429
0.0588974
0.0483674
0.0566109
0.0774889
0.0894883
0.100714
0.112215
0.124628
0.220706
0.24665
0.252078
0.248876
0.241335
0.230963
0.218978
0.206286
0.193538
0.181304
0.170023
0.160043
0.151139
0.142397
0.133071
0.123549
0.114423
0.106162
0.098732
0.0920159
0.0855785
0.0786814
0.0697391
0.058114
0.0606371
0.0865337
0.103824
0.118565
0.13378
0.151312
0.244516
0.273049
0.281156
0.278834
0.271575
0.261052
0.248585
0.23516
0.221503
0.208244
0.195888
0.184866
0.174886
0.164788
0.153753
0.142348
0.131378
0.121486
0.112655
0.104706
0.0970075
0.0888677
0.0791217
0.066467
0.0625895
0.0902399
0.112215
0.130461
0.148878
0.170322
0.259869
0.290153
0.300604
0.299503
0.293142
0.283218
0.271039
0.25763
0.243764
0.230123
0.217278
0.205758
0.195207
0.184266
0.172025
0.159203
0.146773
0.135514
0.125462
0.116411
0.107588
0.0982694
0.0877284
0.0742893
0.0655928
0.0895396
0.117138
0.138324
0.159348
0.183762
0.269666
0.300468
0.31304
0.313319
0.308205
0.299331
0.287931
0.27503
0.261429
0.247854
0.234947
0.223314
0.212548
0.201128
0.188052
0.174181
0.160641
0.148273
0.137201
0.127206
0.117423
0.107072
0.095798
0.081809
0.0699149
0.0849407
0.119246
0.143607
0.167043
0.193678
0.275433
0.305234
0.320028
0.321924
0.318265
0.310715
0.300405
0.288336
0.275324
0.262142
0.249487
0.238021
0.227294
0.215667
0.202044
0.187429
0.173066
0.159824
0.147924
0.137146
0.126555
0.115346
0.103428
0.0890522
0.0749796
0.0800549
0.119258
0.146676
0.172333
0.200659
0.277804
0.305944
0.322498
0.326422
0.3244
0.31834
0.309316
0.298289
0.286089
0.273536
0.261364
0.25027
0.239774
0.228134
0.214201
0.199098
0.18415
0.170248
0.157694
0.146281
0.135019
0.123124
0.110663
0.0960051
0.0804161
0.0766072
0.11722
0.148062
0.175647
0.205061
0.277293
0.304047
0.321589
0.32766
0.327406
0.322941
0.315314
0.305461
0.294223
0.282467
0.270949
0.260378
0.250252
0.238745
0.224699
0.209322
0.193989
0.179633
0.16658
0.154662
0.142847
0.130426
0.117528
0.102648
0.0861182
0.0771051
0.113015
0.148238
0.177343
0.207223
0.274752
0.300265
0.318447
0.326411
0.327967
0.325051
0.318875
0.310295
0.300118
0.289276
0.278541
0.268606
0.258946
0.247677
0.233686
0.218224
0.202686
0.18805
0.174641
0.162339
0.150075
0.137274
0.124043
0.108976
0.0918957
0.079751
0.107518
0.147233
0.177712
0.207525
0.270499
0.295002
0.313649
0.323289
0.3266
0.325384
0.320518
0.313122
0.304076
0.294237
0.284378
0.275162
0.266035
0.255084
0.241291
0.225909
0.210329
0.19556
0.181942
0.169363
0.156747
0.143692
0.130223
0.114998
0.0976494
0.0830811
0.102205
0.14502
0.176534
0.205871
0.264735
0.288534
0.307561
0.318645
0.323671
0.324056
0.320724
0.314425
0.306382
0.297581
0.288654
0.280218
0.271664
0.261103
0.247627
0.232471
0.216998
0.202232
0.188533
0.175782
0.162904
0.149707
0.136084
0.120754
0.103231
0.0869412
0.0974749
0.141829
0.174138
0.203281
0.257614
0.281044
0.300442
0.3128
0.31948
0.321372
0.31949
0.314534
0.307421
0.299527
0.291553
0.283918
0.275957
0.265854
0.252797
0.237996
0.222767
0.20813
0.194459
0.181648
0.168594
0.155352
0.141643
0.12627
0.10864
0.0910907
0.0937445
0.138282
0.171714
0.201177
0.249407
0.272695
0.292494
0.306032
0.314207
0.317561
0.317076
0.313369
0.307436
0.300376
0.293232
0.286392
0.279037
0.269443
0.256895
0.242566
0.227706
0.213317
0.199778
0.187001
0.17386
0.16066
0.146943
0.131556
0.11388
0.0954378
0.0915314
0.134784
0.169223
0.198738
0.241152
0.263718
0.283898
0.298506
0.308022
0.312813
0.313631
0.311142
0.306283
0.300306
0.29391
0.287759
0.281011
0.271971
0.260014
0.246261
0.231883
0.217852
0.204547
0.191893
0.178751
0.165669
0.152013
0.13665
0.118967
0.0999687
0.0908973
0.131445
0.166571
0.195898
0.233076
0.254924
0.274847
0.290372
0.301087
0.307254
0.309285
0.30798
0.30417
0.299166
0.293711
0.288212
0.281976
0.273534
0.262242
0.24916
0.235369
0.221798
0.208826
0.19638
0.183324
0.170424
0.156888
0.14159
0.123924
0.10452
0.0921938
0.127814
0.16376
0.1928
0.225052
0.246546
0.26593
0.281794
0.293566
0.300977
0.304162
0.303985
0.301213
0.29716
0.29255
0.287792
0.282143
0.27423
0.263674
0.251349
0.238237
0.225218
0.212673
0.200516
0.187637
0.174971
0.161607
0.146412
0.128785
0.109095
0.0945376
0.123862
0.160795
0.189627
0.21699
0.238445
0.257524
0.273024
0.285593
0.294098
0.298396
0.299255
0.297497
0.294383
0.290598
0.286548
0.281468
0.274247
0.264421
0.252918
0.240568
0.228185
0.216151
0.204354
0.191742
0.179356
0.166213
0.151164
0.133594
0.113694
0.0973324
0.120209
0.157741
0.186398
0.208842
0.230537
0.249501
0.264805
0.277336
0.286732
0.292104
0.2939
0.293123
0.290919
0.287948
0.284602
0.280106
0.273562
0.264574
0.253957
0.242444
0.230774
0.219315
0.207945
0.195687
0.183622
0.170744
0.155886
0.1384
0.118342
0.1005
0.117042
0.154656
0.183119
0.2006
0.222782
0.241783
0.256994
0.269224
0.279015
0.285364
0.288022
0.288172
0.286849
0.284681
0.282029
0.278143
0.272322
0.264216
0.254551
0.243946
0.233054
0.222218
0.211329
0.199501
0.187799
0.175241
0.160623
0.143254
0.123078
0.104001
0.114413
0.151593
0.179827
0.192296
0.215178
0.234328
0.249515
0.261531
0.271081
0.278232
0.281697
0.28269
0.282231
0.280842
0.278888
0.275642
0.270593
0.263416
0.254762
0.245123
0.23506
0.224884
0.214518
0.203182
0.191913
0.179739
0.165416
0.14821
0.127944
0.107811
0.112429
0.148624
0.176567
0.183971
0.20776
0.227129
0.242328
0.254206
0.263529
0.270777
0.274937
0.276706
0.277072
0.27644
0.275174
0.272613
0.268381
0.262183
0.254592
0.245964
0.23677
0.227282
0.217467
0.206709
0.195991
0.184279
0.170336
0.153319
0.132985
0.111942
0.111297
0.145871
0.173413
0.175755
0.200608
0.220211
0.235426
0.247207
0.256342
0.263443
0.267816
0.270225
0.271314
0.271412
0.27082
0.268971
0.265594
0.260421
0.253927
0.246325
0.238044
0.229278
0.220071
0.210171
0.200109
0.18895
0.175473
0.158681
0.138278
0.116469
0.111205
0.143549
0.170512
0.167961
0.19386
0.213619
0.228791
0.24047
0.249522
0.256604
0.261024
0.263506
0.264968
0.265689
0.265738
0.264598
0.262078
0.257945
0.252575
0.246047
0.238713
0.230775
0.222543
0.2138
0.204519
0.193992
0.18104
0.164522
0.143987
0.121419
0.112224
0.141847
0.168027
0.161034
0.187702
0.207434
0.222492
0.23412
0.243169
0.250293
0.254862
0.257539
0.259287
0.260351
0.260792
0.260252
0.258543
0.255538
0.251409
0.246218
0.240182
0.233464
0.226242
0.218453
0.209919
0.200004
0.187564
0.171298
0.150551
0.12709
0.114431
0.141095
0.16622
0.155607
0.18256
0.202062
0.216894
0.228422
0.237492
0.244749
0.249607
0.252664
0.254922
0.256567
0.25762
0.257914
0.257263
0.25555
0.252818
0.249076
0.2444
0.238881
0.232648
0.225674
0.217753
0.208298
0.196177
0.179987
0.158825
0.134106
0.118334
0.141886
0.165675
0.153346
0.179473
0.198481
0.213038
0.224458
0.233655
0.241255
0.246834
0.250683
0.253902
0.256571
0.258799
0.260452
0.261357
0.261342
0.260332
0.258206
0.254944
0.250562
0.245162
0.238723
0.23106
0.221658
0.209477
0.192928
0.170853
0.14429
0.125567
0.14554
0.167645
0.158738
0.183243
0.201621
0.216148
0.227978
0.237863
0.246453
0.253748
0.259363
0.264547
0.269256
0.273739
0.277835
0.281193
0.283476
0.284384
0.283779
0.281541
0.277694
0.272421
0.265739
0.257489
0.247279
0.2342
0.216721
0.193149
0.163986
0.142236
0.15784
0.177369
0.200974
0.223813
0.241961
0.257266
0.270635
0.282233
0.292745
0.302937
0.311779
0.32021
0.327757
0.335812
0.343566
0.349904
0.35424
0.356307
0.356085
0.35351
0.348753
0.342259
0.334123
0.323939
0.311723
0.296978
0.278442
0.2544
0.224483
0.200704
0.209914
0.224561
0.43767
0.454098
0.467461
0.479128
0.489545
0.495609
0.500274
0.505435
0.511414
0.517076
0.520691
0.528864
0.537257
0.542418
0.544504
0.544619
0.542559
0.538796
0.533618
0.528268
0.522513
0.514079
0.504922
0.495861
0.485558
0.473215
0.456336
0.443426
0.447232
0.454954
0.169404
0.194886
0.20349
0.205207
0.201708
0.194551
0.184976
0.174019
0.162462
0.150924
0.139869
0.129849
0.12126
0.113437
0.104715
0.0945577
0.0833013
0.0717304
0.060506
0.0501976
0.0420769
0.0358192
0.0326214
0.0323612
0.042811
0.0519279
0.0556987
0.0629198
0.0727795
0.0862833
0.276849
0.320632
0.331966
0.329025
0.317473
0.300772
0.281448
0.260998
0.24029
0.219886
0.200176
0.181577
0.163598
0.145075
0.126496
0.110066
0.0963301
0.0854334
0.0765978
0.0694856
0.0628481
0.0572001
0.050865
0.0513781
0.0647522
0.0850998
0.10156
0.118959
0.143348
0.177096
0.338091
0.393973
0.413124
0.413333
0.402497
0.38475
0.363
0.339075
0.314101
0.288918
0.264154
0.240446
0.21694
0.192087
0.167082
0.145243
0.127494
0.114066
0.103765
0.0958335
0.0882796
0.08037
0.0688578
0.0624436
0.0738024
0.0996262
0.126942
0.15328
0.185608
0.227356
0.377317
0.438533
0.463085
0.467096
0.458806
0.442705
0.421486
0.397014
0.370572
0.343238
0.315903
0.289351
0.262533
0.233657
0.204303
0.178439
0.157362
0.141554
0.129722
0.120766
0.112401
0.102536
0.0862815
0.071979
0.0768523
0.107031
0.142718
0.17744
0.215416
0.261099
0.401446
0.466686
0.493845
0.501518
0.496368
0.483069
0.463795
0.440304
0.413947
0.385989
0.357616
0.329707
0.300998
0.269579
0.237142
0.208281
0.184563
0.166731
0.153584
0.143804
0.134972
0.123711
0.103714
0.0820923
0.0786573
0.110241
0.153526
0.194761
0.237386
0.286678
0.417569
0.480639
0.511511
0.52255
0.520795
0.510812
0.494201
0.47254
0.447206
0.419647
0.391281
0.363014
0.333392
0.300429
0.265844
0.234748
0.209003
0.189527
0.175333
0.165023
0.156096
0.143888
0.121116
0.0936231
0.0823632
0.109019
0.160448
0.208521
0.2552
0.307128
0.426984
0.484792
0.518646
0.533757
0.53568
0.529186
0.515589
0.49623
0.472509
0.446043
0.418389
0.390476
0.360656
0.326875
0.290878
0.258162
0.230905
0.210137
0.195165
0.184613
0.175928
0.163087
0.138308
0.106425
0.0880731
0.104888
0.164462
0.218646
0.269358
0.323752
0.430385
0.48281
0.517504
0.537093
0.543405
0.540443
0.529998
0.513166
0.49142
0.466504
0.440049
0.412989
0.383544
0.349434
0.31265
0.278836
0.250506
0.228779
0.213282
0.202729
0.194529
0.181321
0.155103
0.120074
0.0952876
0.101965
0.166228
0.225849
0.28027
0.33687
0.429322
0.477779
0.512905
0.534877
0.545516
0.546243
0.53893
0.524681
0.505096
0.482013
0.457111
0.431259
0.402578
0.368574
0.331504
0.29704
0.268019
0.245654
0.229879
0.219516
0.211989
0.198604
0.171379
0.13416
0.103715
0.103506
0.16589
0.230688
0.288279
0.34666
0.42579
0.470585
0.505846
0.529753
0.54345
0.547863
0.543539
0.531787
0.514414
0.493331
0.470227
0.445862
0.418171
0.384664
0.34773
0.313011
0.283622
0.260959
0.245128
0.235123
0.228403
0.21499
0.187088
0.148367
0.113412
0.107635
0.162943
0.233505
0.293693
0.35331
0.420123
0.461789
0.497045
0.522499
0.538933
0.546429
0.545115
0.535435
0.520044
0.501067
0.479925
0.457227
0.430723
0.398029
0.361582
0.326962
0.297516
0.274841
0.259181
0.249697
0.243871
0.230548
0.202228
0.162501
0.124161
0.112957
0.159215
0.234633
0.296853
0.357064
0.412463
0.451769
0.486995
0.513742
0.532422
0.542532
0.544229
0.536817
0.523058
0.505781
0.486686
0.465736
0.440606
0.408975
0.373301
0.339097
0.309885
0.287461
0.272169
0.263405
0.258499
0.245373
0.216824
0.176546
0.135688
0.118706
0.156077
0.234612
0.298208
0.358323
0.403048
0.440833
0.476052
0.503919
0.524433
0.536798
0.54099
0.536297
0.524181
0.508352
0.490947
0.471789
0.448149
0.417778
0.383127
0.349627
0.320922
0.298984
0.284241
0.276454
0.272417
0.259584
0.231008
0.190456
0.147801
0.125023
0.153992
0.233394
0.298297
0.357121
0.392262
0.429299
0.464517
0.493353
0.515344
0.529621
0.535875
0.533432
0.52363
0.509311
0.493311
0.475757
0.453683
0.424723
0.391313
0.358784
0.330837
0.309599
0.295565
0.28896
0.285768
0.27335
0.244962
0.204197
0.16032
0.132271
0.153348
0.231272
0.29662
0.354138
0.380542
0.417574
0.452717
0.482324
0.505454
0.521319
0.529289
0.529052
0.520943
0.508832
0.494287
0.478082
0.457572
0.430134
0.398156
0.366836
0.339874
0.319524
0.306353
0.301045
0.298734
0.286888
0.25891
0.217982
0.172984
0.140424
0.154122
0.228735
0.293779
0.349978
0.367719
0.405936
0.441021
0.47112
0.495071
0.512183
0.521633
0.52333
0.517042
0.506684
0.494229
0.479329
0.460223
0.434391
0.404014
0.374116
0.348338
0.329024
0.316886
0.312931
0.31154
0.300458
0.273121
0.232096
0.18594
0.149309
0.156109
0.226005
0.290166
0.344963
0.354126
0.394175
0.429846
0.460055
0.484554
0.502554
0.513269
0.516625
0.512287
0.503599
0.493027
0.479856
0.462169
0.437966
0.409337
0.381046
0.35662
0.338442
0.327551
0.32491
0.324465
0.314353
0.287917
0.24697
0.199471
0.158936
0.159421
0.223157
0.286046
0.339423
0.340168
0.382532
0.418891
0.449506
0.474238
0.49287
0.504635
0.509424
0.507093
0.500184
0.491338
0.480153
0.463934
0.441436
0.414693
0.388169
0.365238
0.348257
0.338896
0.337347
0.337849
0.328916
0.303658
0.26294
0.213998
0.169781
0.163989
0.220307
0.281676
0.333658
0.326417
0.371084
0.408272
0.439406
0.464513
0.483693
0.4963
0.502367
0.502049
0.49703
0.490023
0.480813
0.466147
0.445536
0.420828
0.39621
0.374889
0.3592
0.351307
0.350768
0.352149
0.344555
0.320753
0.280368
0.229969
0.182326
0.169779
0.217681
0.277255
0.327936
0.313234
0.359937
0.398126
0.430021
0.455929
0.475614
0.489002
0.496307
0.497904
0.494955
0.490212
0.48256
0.469791
0.451253
0.428743
0.406169
0.386623
0.372272
0.365581
0.365916
0.368029
0.361793
0.339701
0.299758
0.247984
0.196744
0.176459
0.21578
0.273051
0.322488
0.30087
0.349344
0.388671
0.4216
0.448537
0.469553
0.483723
0.492343
0.495749
0.495229
0.49253
0.486844
0.476167
0.459951
0.439864
0.419545
0.401814
0.388847
0.38309
0.383999
0.386528
0.381447
0.36117
0.321728
0.268442
0.213135
0.184932
0.215585
0.26949
0.317607
0.289683
0.339664
0.380236
0.41447
0.442737
0.465275
0.481314
0.491388
0.497323
0.499301
0.498936
0.495436
0.487126
0.47367
0.456445
0.438803
0.422985
0.411343
0.406177
0.407093
0.409432
0.404987
0.38623
0.347261
0.291881
0.231846
0.195585
0.217519
0.26745
0.313824
0.280224
0.331379
0.373299
0.409076
0.438988
0.463331
0.482476
0.496294
0.504763
0.509613
0.512093
0.51128
0.505934
0.495914
0.482649
0.468196
0.45438
0.444045
0.438973
0.438914
0.44001
0.43524
0.417048
0.378082
0.319573
0.253592
0.208595
0.222134
0.268232
0.312308
0.273219
0.325158
0.368539
0.406068
0.438022
0.466147
0.490633
0.508387
0.52074
0.529877
0.53647
0.539667
0.538568
0.533038
0.524491
0.514138
0.503336
0.494513
0.488973
0.486643
0.484821
0.477829
0.458226
0.417616
0.354001
0.279994
0.224361
0.230154
0.272083
0.314012
0.269519
0.322126
0.367269
0.408248
0.445517
0.478987
0.509042
0.531735
0.549551
0.564945
0.577741
0.58745
0.593228
0.59467
0.593106
0.589155
0.583258
0.576696
0.570213
0.564337
0.557026
0.543962
0.51873
0.473001
0.400916
0.315347
0.24536
0.243798
0.280863
0.320865
0.274175
0.329247
0.379273
0.425894
0.469025
0.509364
0.546821
0.577605
0.60407
0.62942
0.651662
0.670532
0.687569
0.700583
0.710896
0.71739
0.719357
0.71637
0.708151
0.696012
0.678619
0.653101
0.614908
0.557161
0.47287
0.370542
0.280071
0.269366
0.300507
0.338743
0.304204
0.364419
0.421787
0.477072
0.529489
0.580441
0.630382
0.675037
0.715193
0.75451
0.790667
0.823837
0.855551
0.884875
0.91136
0.931245
0.941263
0.940119
0.926795
0.903685
0.870448
0.825845
0.767732
0.691427
0.591283
0.469145
0.351777
0.325743
0.352266
0.388288
0.405263
0.477191
0.547014
0.615542
0.682138
0.747557
0.811474
0.872302
0.928075
0.982679
1.03325
1.08062
1.12565
1.16731
1.20189
1.22327
1.22782
1.21535
1.18752
1.14829
1.09943
1.04114
0.971986
0.887328
0.780959
0.651366
0.515119
0.468065
0.489123
0.523738
0.685126
0.766328
0.845333
0.920758
0.992984
1.06291
1.12909
1.19205
1.24933
1.30367
1.35244
1.39495
1.42745
1.44873
1.45335
1.4344
1.40059
1.35693
1.30784
1.2569
1.20708
1.15943
1.11254
1.06096
0.996381
0.908449
0.809446
0.763679
0.782706
0.818617
1.03484
1.1009
1.16443
1.22323
1.27827
1.32737
1.37064
1.40958
1.44095
1.46488
1.48204
1.49023
1.48181
1.45558
1.40876
1.35376
1.2981
1.24201
1.18992
1.14495
1.10811
1.08032
1.06245
1.05131
1.04118
1.02904
1.01716
1.0213
1.04191
1.07338
0.210737
0.248698
0.260475
0.26437
0.261655
0.253869
0.242464
0.228695
0.213491
0.197564
0.18145
0.165581
0.150289
0.13466
0.117146
0.0987596
0.0808231
0.0652839
0.0521738
0.0418736
0.0355651
0.033717
0.0312843
0.0360751
0.0468377
0.0557556
0.0589765
0.0647336
0.0724452
0.0977394
0.344842
0.405316
0.425619
0.425516
0.413591
0.394437
0.371133
0.345444
0.318356
0.290445
0.26204
0.233257
0.203184
0.171921
0.1448
0.12647
0.11422
0.106377
0.0982979
0.0896229
0.0771654
0.0580649
0.0441396
0.0499434
0.0681459
0.0914938
0.112495
0.137351
0.162607
0.194127
0.422127
0.494108
0.524309
0.528736
0.518119
0.49843
0.472948
0.443602
0.411545
0.377586
0.342353
0.306075
0.267296
0.226472
0.191861
0.169493
0.155239
0.146312
0.137169
0.126547
0.110396
0.0844958
0.0608018
0.0598002
0.0784066
0.109133
0.143523
0.181657
0.219064
0.259622
0.474132
0.54895
0.58469
0.593527
0.585882
0.568358
0.543848
0.514175
0.480553
0.443965
0.405285
0.364788
0.320743
0.273983
0.234502
0.208701
0.191845
0.180925
0.170393
0.158156
0.139648
0.109875
0.078898
0.0683175
0.0833617
0.119185
0.164266
0.213444
0.260872
0.307205
0.506396
0.583775
0.621965
0.634935
0.630907
0.616716
0.594612
0.566211
0.532747
0.495378
0.455181
0.41242
0.365215
0.314859
0.272215
0.243702
0.224365
0.211442
0.199797
0.186639
0.16704
0.134719
0.0984598
0.0788417
0.0870943
0.125831
0.180441
0.237263
0.292278
0.343051
0.527056
0.601177
0.643399
0.660152
0.660198
0.649948
0.631037
0.604811
0.572522
0.535527
0.495048
0.451422
0.402529
0.350112
0.305573
0.274949
0.253422
0.238752
0.226396
0.213023
0.192938
0.159012
0.119078
0.0916113
0.0927799
0.129919
0.193108
0.257482
0.316963
0.371727
0.538279
0.605983
0.650852
0.673272
0.67802
0.671959
0.656672
0.633147
0.602684
0.566846
0.527016
0.483525
0.434072
0.380782
0.335312
0.303017
0.279639
0.263492
0.250805
0.237999
0.217468
0.182638
0.140202
0.106458
0.100748
0.132992
0.202989
0.273879
0.337323
0.394888
0.540463
0.603046
0.648598
0.676056
0.687036
0.685388
0.67393
0.653383
0.625161
0.591038
0.552576
0.509994
0.460838
0.407756
0.362053
0.328426
0.303483
0.286135
0.273415
0.261648
0.240755
0.205375
0.161307
0.122747
0.110857
0.136882
0.210719
0.287028
0.353512
0.41379
0.537752
0.596455
0.642372
0.672758
0.688937
0.692218
0.68459
0.667101
0.641364
0.609372
0.572836
0.53181
0.48365
0.431721
0.386277
0.351583
0.325333
0.307045
0.294558
0.283934
0.262848
0.227205
0.182013
0.13973
0.121828
0.142256
0.216934
0.297696
0.366269
0.428793
0.532078
0.587215
0.63324
0.666037
0.685902
0.693825
0.690049
0.675508
0.652377
0.62284
0.588678
0.549663
0.503294
0.453207
0.408352
0.372813
0.345493
0.326514
0.31455
0.304906
0.283794
0.248098
0.202068
0.156902
0.133294
0.148851
0.221943
0.306355
0.376434
0.440252
0.523897
0.57601
0.622026
0.65681
0.679932
0.691712
0.691896
0.679885
0.659032
0.632251
0.600794
0.564259
0.520414
0.472633
0.428565
0.39238
0.364234
0.344781
0.333702
0.324654
0.303676
0.268064
0.22138
0.174006
0.145157
0.156132
0.226027
0.313256
0.384464
0.448535
0.513505
0.563423
0.609407
0.645854
0.671738
0.68676
0.690577
0.681584
0.662872
0.638348
0.609939
0.576267
0.535513
0.490309
0.447148
0.410527
0.381811
0.362101
0.35202
0.343306
0.32261
0.287188
0.240012
0.190972
0.157384
0.163744
0.229418
0.318535
0.390513
0.453997
0.501461
0.55001
0.595956
0.633798
0.661869
0.67964
0.686528
0.681143
0.664524
0.642288
0.616812
0.586287
0.548985
0.506481
0.464321
0.42751
0.398499
0.378782
0.369673
0.361039
0.340768
0.305632
0.258124
0.207847
0.170013
0.171602
0.232279
0.322315
0.394733
0.456966
0.48863
0.536339
0.582188
0.621125
0.650921
0.670901
0.680271
0.677799
0.664572
0.644549
0.622015
0.594856
0.561175
0.521379
0.480341
0.443635
0.414635
0.395225
0.386944
0.378203
0.358435
0.323699
0.276098
0.224666
0.183041
0.179772
0.234921
0.324788
0.397283
0.457794
0.475354
0.523017
0.568594
0.608272
0.639425
0.661055
0.672432
0.672884
0.662481
0.645557
0.626116
0.602478
0.572423
0.5353
0.495559
0.459307
0.430645
0.411981
0.404193
0.395233
0.376014
0.341828
0.294238
0.24159
0.196693
0.188289
0.237592
0.32623
0.398392
0.457306
0.461582
0.510079
0.555713
0.59569
0.627914
0.650652
0.663719
0.666692
0.659049
0.645861
0.629694
0.609676
0.583143
0.548667
0.510472
0.475082
0.447099
0.429582
0.421859
0.412596
0.393976
0.360551
0.312981
0.259032
0.211065
0.197153
0.240621
0.326822
0.398361
0.455359
0.447401
0.497561
0.54365
0.583821
0.616806
0.640355
0.654789
0.659946
0.65546
0.64609
0.633387
0.617037
0.593895
0.562098
0.525787
0.491731
0.464833
0.448524
0.440483
0.430871
0.412899
0.380489
0.332962
0.277529
0.226434
0.206817
0.244099
0.326234
0.396737
0.452616
0.433084
0.485543
0.532468
0.573176
0.606514
0.630865
0.646437
0.653582
0.652497
0.646893
0.637971
0.625284
0.605446
0.576473
0.542502
0.510327
0.485138
0.469653
0.460813
0.450866
0.433528
0.402365
0.354957
0.297793
0.243266
0.2175
0.248476
0.324604
0.393914
0.449141
0.419012
0.474154
0.522221
0.563644
0.597634
0.622905
0.639643
0.648767
0.651177
0.649342
0.644459
0.635354
0.618873
0.593014
0.562008
0.532384
0.509333
0.494135
0.484178
0.473771
0.456929
0.427075
0.379983
0.320671
0.262095
0.229663
0.253987
0.3227
0.390353
0.445138
0.40561
0.463595
0.513045
0.555398
0.590294
0.616903
0.635299
0.646797
0.652982
0.655006
0.654211
0.648771
0.635653
0.613454
0.586312
0.560218
0.538993
0.523577
0.512469
0.501393
0.484719
0.455931
0.409364
0.347277
0.283481
0.243596
0.260573
0.321429
0.386633
0.440947
0.393381
0.454229
0.505227
0.548652
0.584774
0.613172
0.633672
0.649085
0.659337
0.665483
0.669176
0.667595
0.658199
0.640337
0.618442
0.596259
0.576512
0.560784
0.548626
0.536563
0.519456
0.491096
0.444862
0.379185
0.308559
0.259398
0.268935
0.322269
0.383766
0.437119
0.383101
0.446608
0.498883
0.543747
0.581569
0.612065
0.637728
0.658256
0.672482
0.683179
0.691895
0.694928
0.69013
0.677738
0.661834
0.643659
0.625799
0.610463
0.597374
0.583821
0.565312
0.536043
0.489069
0.418811
0.339118
0.277907
0.279305
0.3254
0.383698
0.435001
0.375989
0.440634
0.4945
0.541147
0.581369
0.617828
0.650204
0.675766
0.695336
0.711935
0.72655
0.7355
0.736776
0.73061
0.72094
0.70802
0.693989
0.68005
0.666134
0.650298
0.628811
0.596294
0.546163
0.469966
0.378332
0.301445
0.29286
0.331754
0.386583
0.43604
0.372004
0.437141
0.493169
0.54402
0.591673
0.635036
0.674046
0.705569
0.731962
0.755988
0.778005
0.794435
0.803687
0.805892
0.804944
0.799819
0.791927
0.780512
0.765677
0.746122
0.719062
0.679957
0.6228
0.538061
0.431665
0.334509
0.312373
0.342971
0.394052
0.441459
0.372966
0.441385
0.504473
0.563574
0.618098
0.669173
0.715768
0.755615
0.791068
0.824809
0.85646
0.882702
0.902567
0.916653
0.928533
0.933673
0.933423
0.924513
0.907405
0.881468
0.844397
0.793921
0.725579
0.630582
0.508132
0.386171
0.344188
0.365405
0.410105
0.45568
0.39735
0.470866
0.54134
0.608727
0.672945
0.733326
0.790166
0.841714
0.889141
0.935502
0.979483
1.01823
1.0516
1.08052
1.10762
1.12259
1.12661
1.11298
1.08369
1.0443
0.995242
0.934379
0.857208
0.754981
0.621528
0.474996
0.405793
0.415974
0.452232
0.493395
0.466328
0.548086
0.630183
0.708628
0.784054
0.856459
0.926003
0.991894
1.05308
1.11338
1.17041
1.22196
1.26826
1.30956
1.34466
1.35689
1.34143
1.30677
1.26082
1.20845
1.15123
1.08699
1.01044
0.912121
0.783444
0.628528
0.534007
0.526922
0.553658
0.589384
0.645851
0.736391
0.828306
0.916551
1.0013
1.08298
1.16153
1.23735
1.30719
1.37541
1.43845
1.49456
1.54223
1.57711
1.58938
1.56132
1.51291
1.45276
1.39
1.32877
1.27121
1.21544
1.15579
1.08192
0.982725
0.857194
0.767715
0.749779
0.771371
0.802652
0.990345
1.08189
1.17431
1.25886
1.33753
1.41236
1.48338
1.55075
1.61181
1.66958
1.71971
1.75917
1.77606
1.76296
1.71826
1.64105
1.55749
1.47404
1.39937
1.33664
1.28798
1.25162
1.22307
1.19281
1.1489
1.08922
1.04539
1.04832
1.08359
1.13136
1.23438
1.32219
1.40772
1.485
1.55368
1.61525
1.66759
1.71325
1.75096
1.78152
1.80122
1.80107
1.7682
1.70356
1.61339
1.50394
1.40142
1.30968
1.23483
1.17903
1.14294
1.12538
1.1235
1.13193
1.14025
1.14555
1.15774
1.18817
1.23406
1.29568
0.251154
0.297545
0.310088
0.313653
0.311139
0.302965
0.290343
0.274497
0.25635
0.236603
0.215775
0.194104
0.171887
0.147939
0.122238
0.0997466
0.0830141
0.0773699
0.0747392
0.0680888
0.0502823
0.0336284
0.032585
0.039845
0.0522853
0.0632352
0.0671955
0.0737984
0.0820987
0.10617
0.417087
0.486985
0.507374
0.50796
0.495111
0.473794
0.447243
0.417257
0.384713
0.350054
0.313339
0.27434
0.23162
0.188516
0.159126
0.150045
0.14945
0.154287
0.149475
0.134845
0.102759
0.0676508
0.0519265
0.0596776
0.0836712
0.111786
0.136612
0.169129
0.190672
0.218422
0.515779
0.594545
0.625378
0.630168
0.617957
0.595708
0.566745
0.532728
0.494495
0.452581
0.407257
0.358213
0.303351
0.248106
0.213068
0.204353
0.20431
0.206635
0.19833
0.17965
0.144852
0.104289
0.0767925
0.0786784
0.104078
0.141627
0.179978
0.225582
0.261376
0.299913
0.583672
0.661885
0.699295
0.707815
0.698139
0.677764
0.649616
0.615071
0.574885
0.529604
0.479728
0.424819
0.36242
0.299863
0.261633
0.251546
0.249454
0.247879
0.237
0.215606
0.181899
0.140551
0.104126
0.0976905
0.120763
0.163597
0.212896
0.267645
0.314874
0.3616
0.629339
0.705981
0.746514
0.75886
0.752649
0.73548
0.709589
0.676097
0.635725
0.589072
0.536842
0.478404
0.411139
0.34445
0.304793
0.292964
0.288184
0.283011
0.270648
0.248194
0.217212
0.175792
0.133231
0.118731
0.137165
0.182085
0.239197
0.300716
0.356877
0.408918
0.658042
0.733414
0.775199
0.791404
0.789358
0.776223
0.753468
0.721949
0.682419
0.635622
0.58243
0.5221
0.451885
0.383319
0.343583
0.329949
0.322381
0.314392
0.301775
0.279219
0.250048
0.208889
0.162717
0.14129
0.154648
0.199158
0.261992
0.327923
0.389992
0.446354
0.674961
0.744196
0.790058
0.809979
0.812926
0.804271
0.785188
0.75623
0.718238
0.672158
0.619084
0.558124
0.486387
0.418083
0.379125
0.363609
0.353286
0.343248
0.331261
0.308099
0.279625
0.239172
0.191319
0.164267
0.172515
0.214758
0.282022
0.351699
0.417529
0.476584
0.681202
0.743285
0.789741
0.817687
0.826484
0.822504
0.807378
0.781333
0.745373
0.70069
0.648633
0.588041
0.516217
0.450075
0.412331
0.394791
0.381768
0.370318
0.358822
0.334902
0.306146
0.26637
0.218044
0.186482
0.189998
0.229049
0.299271
0.372296
0.440878
0.501149
0.679539
0.737687
0.784774
0.816112
0.832111
0.833042
0.82197
0.799005
0.765438
0.722737
0.672492
0.613055
0.542842
0.480353
0.443885
0.424119
0.408481
0.396168
0.384481
0.359882
0.330092
0.290613
0.242421
0.207127
0.206267
0.242039
0.314083
0.389942
0.460161
0.521235
0.674013
0.728718
0.776284
0.810669
0.830922
0.837581
0.830503
0.810595
0.779704
0.739527
0.691668
0.634404
0.567544
0.50968
0.474263
0.452045
0.43392
0.421203
0.40838
0.383285
0.352053
0.312277
0.264366
0.225998
0.221045
0.253593
0.326619
0.404898
0.475639
0.53729
0.665023
0.717098
0.765179
0.802233
0.826295
0.837345
0.834359
0.817329
0.7891
0.752056
0.70725
0.653279
0.591376
0.538586
0.503777
0.478898
0.458495
0.44534
0.430733
0.405297
0.372618
0.331854
0.284036
0.243126
0.234117
0.263697
0.33698
0.417284
0.487832
0.54975
0.652836
0.703433
0.752172
0.791607
0.818979
0.833804
0.835308
0.82091
0.795339
0.761421
0.720333
0.670749
0.615111
0.567349
0.532624
0.505002
0.482561
0.468756
0.452087
0.426005
0.392146
0.349911
0.301724
0.258707
0.245476
0.272339
0.345308
0.427246
0.497711
0.559092
0.638313
0.688458
0.737965
0.779507
0.809733
0.827678
0.832709
0.822072
0.799252
0.768717
0.731927
0.687744
0.639213
0.596051
0.56095
0.530686
0.506578
0.491749
0.47297
0.445955
0.410924
0.367078
0.317899
0.272971
0.255501
0.279629
0.351779
0.434947
0.505411
0.565749
0.622532
0.672926
0.723233
0.766581
0.799228
0.819694
0.82777
0.821099
0.801466
0.77483
0.742955
0.705019
0.663884
0.624684
0.588942
0.556349
0.531189
0.514717
0.493905
0.465898
0.429481
0.384051
0.333366
0.286422
0.264537
0.285997
0.356644
0.440573
0.511035
0.570073
0.605987
0.657537
0.708576
0.753411
0.7881
0.810561
0.821119
0.817915
0.802635
0.780383
0.754258
0.723127
0.689159
0.653293
0.616915
0.582522
0.556897
0.538078
0.515474
0.48655
0.448877
0.401599
0.348526
0.299423
0.273013
0.29165
0.360151
0.444318
0.514759
0.572369
0.589023
0.642404
0.694546
0.74051
0.776871
0.801033
0.813695
0.814128
0.80352
0.786355
0.766622
0.742498
0.71505
0.682081
0.645396
0.609946
0.58407
0.562532
0.53841
0.508683
0.470083
0.42079
0.364504
0.312144
0.281605
0.296902
0.362504
0.446377
0.516827
0.573558
0.57198
0.627763
0.681203
0.728374
0.766011
0.791908
0.806592
0.810521
0.804883
0.79375
0.780609
0.763498
0.741853
0.711534
0.675217
0.639711
0.613411
0.589176
0.563654
0.533222
0.494093
0.442898
0.382967
0.325838
0.290844
0.302428
0.363946
0.446939
0.517456
0.573771
0.555203
0.613839
0.668753
0.717162
0.756052
0.78392
0.800779
0.808334
0.807907
0.803215
0.796991
0.786713
0.770186
0.742504
0.707624
0.673444
0.645829
0.6193
0.592475
0.561384
0.522005
0.469265
0.405369
0.342572
0.301488
0.309144
0.36507
0.445081
0.515743
0.572381
0.539072
0.600855
0.657415
0.707135
0.747587
0.77729
0.796873
0.80817
0.814007
0.815854
0.816777
0.813043
0.801162
0.776341
0.744418
0.712039
0.682858
0.654615
0.626611
0.594868
0.555069
0.501315
0.433321
0.363531
0.314414
0.317484
0.367101
0.442407
0.512317
0.569626
0.524032
0.589095
0.647457