/*--------------------------------*- C++ -*----------------------------------*\
| =========                 |                                                 |
| \\      /  F ield         | OpenFOAM: The Open Source CFD Toolbox           |
|  \\    /   O peration     | Version:  5.0                                   |
|   \\  /    A nd           | Web:      www.OpenFOAM.org                      |
|    \\/     M anipulation  |                                                 |
\*---------------------------------------------------------------------------*/
FoamFile
{
    version     2.0;
    format      ascii;
    class       volScalarField;
    location    "700/air";
    object      nut;
}
// * * * * * * * * * * * * * * * * * * * * * * * * * * * * * * * * * * * * * //

dimensions      [0 2 -1 0 0 0 0];

internalField   nonuniform List<scalar> 
243000
(
0.000180023
0.000180451
0.000175806
0.000168993
0.000160948
0.000152381
0.000143773
0.000135467
0.000127702
0.000120697
0.00011465
0.000109767
0.000106172
0.000103677
0.000101633
9.961e-05
9.74785e-05
9.5323e-05
9.32397e-05
9.13056e-05
8.96382e-05
8.74071e-05
8.31251e-05
7.4837e-05
8.35933e-05
9.94982e-05
0.000108252
0.000118457
0.000128789
0.000139326
0.000802083
0.000846875
0.000853917
0.00084773
0.00083415
0.000815415
0.000793331
0.000769335
0.000744577
0.000720164
0.000697175
0.000676513
0.000658064
0.000640301
0.000621236
0.000600999
0.000580489
0.000560698
0.00054174
0.000523741
0.000506258
0.000486173
0.000456684
0.000413279
0.000438716
0.000517126
0.000556992
0.000590959
0.000623779
0.000656845
0.00087647
0.000927118
0.000937953
0.000932365
0.000918459
0.000898781
0.000875382
0.000849834
0.000823326
0.000797023
0.000771976
0.000749134
0.000728168
0.000707023
0.000683674
0.000658842
0.000634032
0.000610675
0.000588877
0.000568505
0.000548429
0.000526251
0.000496562
0.000453402
0.000454799
0.000545053
0.000599163
0.000640706
0.000680757
0.000723613
0.000922406
0.000975435
0.000990594
0.000986921
0.000974336
0.000955566
0.000932718
0.0009074
0.000880847
0.000854252
0.000828696
0.000805223
0.00078338
0.000760686
0.00073499
0.000707294
0.000679479
0.000653341
0.000629093
0.000606497
0.000583979
0.000559286
0.000528686
0.000485173
0.000464368
0.000555247
0.000621988
0.000671468
0.000717739
0.000767527
0.000950751
0.00100553
0.0010243
0.00102288
0.00101231
0.000995328
0.00097395
0.000949781
0.000924077
0.000898047
0.00087282
0.000849556
0.000827696
0.00080444
0.000777491
0.00074805
0.000718242
0.000690083
0.000663939
0.000639542
0.000615059
0.000588135
0.000556531
0.000513015
0.000478623
0.000550384
0.000634679
0.00069099
0.000742282
0.000797067
0.000968393
0.00102313
0.00104527
0.00104623
0.00103801
0.00102326
0.00100385
0.00098134
0.00095699
0.000932031
0.000907649
0.000885091
0.000863709
0.00084047
0.000812929
0.000782475
0.000751442
0.000721875
0.00069434
0.000668573
0.000642595
0.000613914
0.000581433
0.00053832
0.000495965
0.000534928
0.000639479
0.000703637
0.000759807
0.000818206
0.00097858
0.00103113
0.00105681
0.00106051
0.00105483
0.00104254
0.00102537
0.0010048
0.000982102
0.000958536
0.000935338
0.000913796
0.00089319
0.000870335
0.000842638
0.0008117
0.00077998
0.00074949
0.00072099
0.000694227
0.000667148
0.00063719
0.000604043
0.000561569
0.000514604
0.000519719
0.000638637
0.000710764
0.000771575
0.000832724
0.00098266
0.00103227
0.00106078
0.00106787
0.00106494
0.00105525
0.00104046
0.00102199
0.00100112
0.000979157
0.000957361
0.000937031
0.000917401
0.000895146
0.000867622
0.00083659
0.00080458
0.000773565
0.000744438
0.000716996
0.000689124
0.000658319
0.000624737
0.000582967
0.000533593
0.00051062
0.000631651
0.000713784
0.000778784
0.000841689
0.000981667
0.00102901
0.0010592
0.00106987
0.00106985
0.00106283
0.00105049
0.0010342
0.00101526
0.000995022
0.000974772
0.000955784
0.000937245
0.000915735
0.000888629
0.000857803
0.000825803
0.000794613
0.00076514
0.00073727
0.000708846
0.000677554
0.000643764
0.000602661
0.000552636
0.000519313
0.000617362
0.00071385
0.000782305
0.000845948
0.000977077
0.00102254
0.00105395
0.00106776
0.00107072
0.00106627
0.00105639
0.00104235
0.00102538
0.00100695
0.000988348
0.000970782
0.0009534
0.000932716
0.000906226
0.000875853
0.000844115
0.000813027
0.00078345
0.000755366
0.000726587
0.000695112
0.000661315
0.000620815
0.000571022
0.000529306
0.000601275
0.000710778
0.000782796
0.00084636
0.000969398
0.00101348
0.00104593
0.00106257
0.00106843
0.00106678
0.00105909
0.00104708
0.00103212
0.00101556
0.000998664
0.000982575
0.000966379
0.00094657
0.000920855
0.000891143
0.000859888
0.000829111
0.000799673
0.000771553
0.00074259
0.000711173
0.000677545
0.00063761
0.000588618
0.000541184
0.000586118
0.000704534
0.000779541
0.000842663
0.000958914
0.00100223
0.00103566
0.00105482
0.00106358
0.00106456
0.00105939
0.00104924
0.00103602
0.00102132
0.00100616
0.000991581
0.00097657
0.000957686
0.000932872
0.000903994
0.000873419
0.000843144
0.00081404
0.000786058
0.000757058
0.000725903
0.000692585
0.000653238
0.000605105
0.000554378
0.000572769
0.000695896
0.000773893
0.000838009
0.000945809
0.000989051
0.00102352
0.00104502
0.00105659
0.00106008
0.0010573
0.0010494
0.00103777
0.00102467
0.00101122
0.000998126
0.000984282
0.000966376
0.000942568
0.000914677
0.000884957
0.000855358
0.000826744
0.000799083
0.000770186
0.000739455
0.000706542
0.000667898
0.000620642
0.000567943
0.000562887
0.000686768
0.000768609
0.000834206
0.000930513
0.000974146
0.00100979
0.00103355
0.00104775
0.00105372
0.00105326
0.00104743
0.00103779
0.00102612
0.00101414
0.00100249
0.000989786
0.000972896
0.000950188
0.000923423
0.000894717
0.000865957
0.000837981
0.000810785
0.000782134
0.000751968
0.000719587
0.00068164
0.000635316
0.000581799
0.000558046
0.000677836
0.000763149
0.000829333
0.000915091
0.000957882
0.000994731
0.00102067
0.00103729
0.00104576
0.00104748
0.00104369
0.00103584
0.00102601
0.00101533
0.00100491
0.000993312
0.000977472
0.00095595
0.000930435
0.000902889
0.000875118
0.000847929
0.000821337
0.000793065
0.000763577
0.000731842
0.000694622
0.000649231
0.000595662
0.000558651
0.000668912
0.000757236
0.000823497
0.000899684
0.000941845
0.000978652
0.00100656
0.00102547
0.00103636
0.00104016
0.00103836
0.00103226
0.00102407
0.001015
0.00100572
0.00099505
0.000980303
0.000960051
0.000935903
0.000909652
0.000883009
0.000856753
0.000830898
0.000803139
0.000774423
0.000743426
0.000706979
0.000662499
0.000609228
0.000567037
0.000657521
0.000750859
0.000817146
0.000884046
0.000926259
0.000962694
0.000991484
0.0010125
0.00102565
0.00103148
0.00103158
0.00102724
0.00102064
0.00101301
0.00100502
0.000995372
0.000981574
0.000962682
0.000940009
0.000915179
0.000889791
0.000864607
0.000839614
0.000812509
0.00078464
0.000754464
0.000718841
0.000675251
0.000622494
0.00057628
0.000646788
0.000744066
0.000810559
0.000867991
0.000910894
0.000947353
0.000975931
0.000998576
0.00101379
0.00102163
0.00102351
0.00102089
0.00101588
0.00100965
0.00100287
0.000994211
0.000981623
0.000964055
0.00094294
0.000919643
0.000895629
0.000871647
0.000847623
0.000821317
0.000794361
0.000765082
0.000730338
0.000687631
0.000635471
0.000585665
0.000637782
0.000737082
0.000803791
0.000851405
0.000895606
0.000932454
0.000961117
0.000983966
0.00100095
0.00101078
0.0010143
0.00101336
0.0010099
0.00100506
0.00099949
0.00099183
0.000980415
0.00096434
0.000944874
0.000923217
0.000900689
0.000878002
0.000855045
0.000829693
0.000803708
0.000775388
0.000741588
0.000699783
0.000648274
0.000596071
0.000630327
0.000730016
0.000796854
0.000834246
0.000880326
0.000917876
0.000946829
0.00096949
0.000987347
0.000999022
0.0010041
0.00100477
0.00100282
0.000999361
0.000994988
0.000988371
0.000978203
0.000963689
0.000945972
0.000926062
0.000905119
0.000883795
0.000861981
0.000837712
0.000812761
0.000785481
0.000752695
0.00071184
0.000661021
0.000606887
0.000624322
0.000722939
0.000789817
0.00081654
0.00086506
0.000903562
0.000932937
0.000955553
0.000973174
0.000986435
0.000993018
0.000995177
0.000994739
0.000992619
0.000989453
0.000983937
0.0009751
0.000962227
0.000946354
0.000928285
0.000909004
0.000889091
0.000868473
0.000845371
0.000821576
0.000795441
0.000763762
0.000723928
0.000673832
0.000618248
0.000620183
0.000716018
0.000782777
0.000798318
0.000849881
0.000889514
0.000919387
0.000942085
0.000959545
0.000973112
0.000981046
0.000984605
0.00098562
0.000984829
0.000982862
0.000978533
0.000971113
0.00095997
0.000946033
0.000929876
0.000912313
0.000893841
0.000874446
0.000852583
0.000830196
0.000805355
0.000774953
0.000736178
0.000686834
0.000630131
0.000618571
0.000709572
0.0007759
0.000779864
0.000834977
0.000875803
0.000906184
0.00092903
0.000946388
0.000959831
0.000968273
0.000973022
0.000975342
0.00097585
0.000975075
0.00097199
0.000966065
0.000956741
0.000944804
0.000930578
0.000914793
0.000897787
0.000879685
0.000859574
0.00083881
0.000815415
0.000786437
0.000748803
0.000700213
0.000642989
0.000619784
0.000704127
0.000769534
0.000761953
0.000820672
0.000862547
0.00089331
0.000916283
0.000933723
0.000947275
0.000955893
0.000960796
0.000963873
0.000965509
0.000965887
0.000964057
0.000959644
0.000952176
0.000942285
0.000930072
0.000916108
0.000900656
0.000884427
0.000866849
0.000847915
0.000826117
0.00079868
0.00076231
0.000714352
0.000656445
0.000623905
0.00070018
0.000764056
0.000745519
0.000807424
0.000849936
0.000880916
0.000904099
0.000921766
0.000935542
0.000944521
0.000949801
0.000953371
0.000955623
0.000956691
0.00095593
0.000952957
0.000947523
0.000939908
0.000930183
0.00091872
0.000905715
0.000891576
0.000876097
0.000858917
0.000838688
0.000812782
0.000777661
0.000730273
0.000671534
0.000631112
0.000698637
0.000760122
0.00073235
0.000796238
0.000838852
0.000869776
0.000893042
0.000910957
0.000925112
0.000934721
0.000940717
0.00094521
0.000948531
0.000950706
0.000951448
0.000950402
0.00094734
0.000942328
0.000935358
0.000926542
0.000915981
0.000903939
0.000890309
0.000874658
0.000855752
0.000831048
0.000796935
0.000749868
0.000689819
0.000642898
0.000700955
0.000759128
0.000727402
0.000789533
0.000831432
0.000862054
0.000885311
0.000903611
0.000918493
0.000929523
0.000936991
0.000943238
0.000948406
0.000952724
0.000955931
0.000957718
0.000957773
0.000955973
0.000952089
0.000946064
0.000937884
0.000927728
0.000915511
0.000900827
0.000882596
0.000858551
0.000824842
0.000777497
0.000715461
0.000663116
0.000710394
0.000763929
0.000741059
0.000798113
0.000838227
0.000868523
0.000892399
0.000911861
0.000928431
0.00094252
0.000953087
0.00096276
0.000971455
0.000979647
0.000987061
0.000993089
0.000997165
0.000998795
0.000997763
0.000993846
0.000987048
0.00097767
0.000965686
0.000950738
0.000931981
0.000907508
0.000873835
0.000826222
0.000762415
0.000706104
0.00074052
0.000786238
0.000835812
0.000883159
0.000919047
0.000948158
0.000972801
0.000993691
0.00101223
0.00102993
0.00104498
0.00105915
0.0010716
0.0010847
0.00109719
0.00110729
0.00111416
0.00111744
0.00111714
0.00111315
0.00110569
0.00109542
0.00108243
0.00106601
0.00104596
0.00102131
0.000989565
0.000946836
0.000890276
0.000838599
0.000855265
0.000885452
0.00123672
0.00126016
0.00127887
0.00129496
0.00130908
0.00131738
0.00132368
0.00133042
0.0013382
0.00134572
0.00135034
0.00136069
0.00137148
0.00137809
0.00138079
0.00138099
0.00137848
0.00137379
0.00136726
0.00136046
0.00135309
0.00134242
0.00133045
0.0013185
0.0013049
0.00128849
0.00126552
0.00124588
0.00125029
0.00126147
0.00021655
0.000223761
0.000220424
0.00021362
0.000204674
0.000194585
0.000184043
0.000173559
0.000163479
0.000154068
0.000145503
0.000138016
0.000131787
0.000126465
0.000121058
0.000115092
0.000108522
0.000101579
9.44771e-05
8.74654e-05
8.15983e-05
7.70704e-05
0.000331834
7.64456e-05
9.06646e-05
0.00010374
0.000111261
0.000122174
0.000136394
0.000154264
0.000919521
0.00104765
0.0010162
0.000946445
0.00086758
0.000790117
0.000720322
0.000658496
0.000603362
0.000553417
0.000507459
0.000465523
0.00042193
0.000374246
0.00032904
0.000294989
0.000272477
0.000261095
0.000257576
0.000262692
0.000271921
0.00028882
0.000303029
0.000299288
0.000428961
0.00055477
0.000646
0.0007165
0.000798703
0.000872422
0.00155434
0.0018271
0.00183702
0.00174724
0.00162517
0.00149529
0.00137295
0.00126117
0.00115909
0.00106534
0.000978056
0.000897349
0.000811859
0.00071783
0.000630294
0.0005648
0.000521571
0.000499622
0.000492543
0.000501598
0.000514165
0.000524948
0.000489678
0.000454956
0.000575867
0.000763412
0.000976675
0.00116695
0.00134375
0.00145949
0.00206659
0.00243498
0.00249439
0.00241186
0.00227385
0.00211654
0.00196146
0.00181439
0.0016763
0.00154837
0.00142702
0.00130913
0.00118511
0.00105212
0.000930351
0.000838938
0.000777281
0.000744579
0.000732541
0.000740176
0.000751446
0.00074828
0.000668163
0.000571578
0.000628898
0.000854984
0.00116241
0.00148091
0.00176008
0.00191804
0.00245596
0.00291554
0.00300515
0.0029405
0.00280182
0.00263524
0.00246268
0.00229339
0.00213048
0.00197575
0.00182558
0.00167984
0.00152463
0.00136041
0.00121145
0.00109979
0.00102294
0.000980332
0.000963366
0.000968626
0.000977419
0.000960762
0.000839894
0.000678466
0.000667626
0.000895453
0.00128418
0.00169759
0.0020749
0.00229791
0.00277716
0.00325897
0.00339758
0.00335435
0.00322444
0.00306074
0.00288162
0.00270016
0.00252121
0.00234623
0.00217651
0.00200846
0.00182882
0.0016414
0.00147184
0.00134442
0.00125546
0.00120382
0.00118202
0.00118496
0.00119235
0.0011636
0.00100754
0.000788888
0.000706279
0.000908322
0.00136058
0.00186862
0.00233334
0.00262029
0.00303516
0.00349433
0.003678
0.00367117
0.00355909
0.00340603
0.00322851
0.00304221
0.00285392
0.00266577
0.00248223
0.0022986
0.0021011
0.00189744
0.00171301
0.00157348
0.00147484
0.0014149
0.00138843
0.00138932
0.00139738
0.00135696
0.00117097
0.000904968
0.000757014
0.000895087
0.00140382
0.00199073
0.00253809
0.00289656
0.00322946
0.00365669
0.00385763
0.00389873
0.00381981
0.00368273
0.00351379
0.00332753
0.0031351
0.00294108
0.00274579
0.00255372
0.00234542
0.00213083
0.00193669
0.00178802
0.00168158
0.00161409
0.0015831
0.00158216
0.00159207
0.00154051
0.001329
0.00102499
0.000818045
0.000887844
0.00142311
0.00207355
0.00269364
0.00312768
0.0033732
0.00378068
0.00399274
0.00405605
0.00401555
0.00390166
0.00374599
0.00356343
0.00337113
0.00317566
0.00297553
0.00277667
0.00256494
0.00234436
0.00214443
0.00198898
0.00187619
0.00180201
0.00176677
0.0017641
0.0017766
0.00171396
0.00148055
0.00114628
0.000887056
0.000907237
0.00142593
0.00212525
0.00280585
0.00331309
0.00348849
0.00387175
0.0040904
0.00417284
0.00415749
0.00407211
0.0039324
0.00375624
0.00356711
0.00337342
0.00317514
0.0029716
0.00275928
0.00253966
0.0023373
0.00217705
0.00205886
0.00197947
0.00194015
0.00193593
0.0019513
0.00187744
0.001625
0.00126659
0.000963845
0.000938081
0.0014135
0.00215244
0.00288144
0.00346183
0.00357392
0.0039324
0.00415573
0.00425485
0.00426475
0.00420405
0.00408492
0.00391373
0.00372708
0.00353871
0.0033454
0.00314562
0.00293243
0.0027156
0.00251604
0.00235275
0.00223025
0.00214675
0.00210384
0.00209862
0.00211664
0.00203125
0.00176204
0.00138443
0.00104761
0.000976945
0.00139682
0.00216147
0.00292693
0.00357535
0.0036251
0.00396313
0.00419239
0.00430775
0.00433998
0.00430176
0.00420771
0.00404853
0.00386212
0.00367573
0.00349012
0.00329763
0.00309078
0.00287822
0.00268046
0.00251642
0.00239088
0.00230431
0.00225833
0.00225338
0.00227313
0.00217587
0.00189136
0.00150028
0.00113614
0.00101854
0.00138325
0.00215939
0.00294831
0.0036533
0.00363653
0.00396503
0.00420314
0.00433578
0.00438818
0.00437148
0.00429906
0.00416283
0.00397966
0.00379391
0.00361298
0.00343039
0.00323318
0.00302815
0.00283381
0.00266893
0.00254145
0.00245269
0.0024043
0.00240188
0.00242125
0.00231191
0.00201396
0.00161314
0.00122805
0.00106122
0.00137402
0.00214395
0.00295367
0.003683
0.00360417
0.00393862
0.00418962
0.00434227
0.0044134
0.00441701
0.00436351
0.00424673
0.00408056
0.00389846
0.00372011
0.00354645
0.00336139
0.00316549
0.00297572
0.00281227
0.00268282
0.00259258
0.00254248
0.00254409
0.00256119
0.0024401
0.00213102
0.00172117
0.00132156
0.00111047
0.00137017
0.00211839
0.00293198
0.00367409
0.00352144
0.00388424
0.00415407
0.00433001
0.00441911
0.00444171
0.00440521
0.00431038
0.00415499
0.00398943
0.00381634
0.00364929
0.00347723
0.00329138
0.00310708
0.00294538
0.00281589
0.00272462
0.00267371
0.00267941
0.00269293
0.00256118
0.00224365
0.00182579
0.00141312
0.00116617
0.00137203
0.00208786
0.00289293
0.00364006
0.00339019
0.00379673
0.00409948
0.00430067
0.00440879
0.00444886
0.00442883
0.00435421
0.00421425
0.00406011
0.00390389
0.00374375
0.00358254
0.00340695
0.0032289
0.00306964
0.00294091
0.00284922
0.00279888
0.00280757
0.00281619
0.00267557
0.00235272
0.00192831
0.00150387
0.00122532
0.0013803
0.00205515
0.00284271
0.00358682
0.00322654
0.00367673
0.00402565
0.00425637
0.00438561
0.00444187
0.00443795
0.00438131
0.00426085
0.00411799
0.00397676
0.00383072
0.00368004
0.00351359
0.00334225
0.00318716
0.00305899
0.00296667
0.00291861
0.00292761
0.00292997
0.00278287
0.00245848
0.00203105
0.0015951
0.00128488
0.00139801
0.002022
0.00278488
0.00351936
0.00304577
0.00353753
0.00392704
0.0042001
0.00435134
0.00442424
0.0044359
0.00439541
0.00429652
0.00416779
0.00403905
0.00391128
0.0037703
0.00361248
0.00344789
0.00329652
0.00316982
0.00307665
0.00303246
0.00303679
0.00303182
0.00288116
0.00255977
0.00213286
0.00168807
0.00135023
0.00142373
0.00199034
0.00272377
0.00344367
0.00286252
0.0033891
0.00381303
0.00412378
0.00430931
0.00440002
0.0044263
0.00440057
0.00432384
0.00421129
0.00409575
0.00398512
0.00385269
0.00370358
0.00354537
0.00339745
0.00327178
0.00317784
0.00313401
0.00313025
0.00311607
0.00296626
0.00265327
0.00223061
0.00178249
0.00142516
0.00145489
0.00196234
0.00266301
0.00336511
0.00268729
0.00323987
0.00369192
0.00403568
0.00425859
0.00437226
0.00441293
0.0044014
0.00434437
0.0042496
0.00415208
0.00404875
0.00392587
0.00378457
0.00363148
0.00348575
0.00336005
0.00326449
0.00321452
0.00319967
0.00317434
0.00302997
0.00273271
0.00232053
0.00187766
0.00150751
0.0014825
0.00194061
0.00260563
0.00328749
0.00252787
0.00309751
0.00357089
0.00394195
0.00419686
0.0043455
0.00439937
0.00440063
0.00435877
0.0042836
0.00419529
0.00410081
0.00398477
0.00384823
0.00369736
0.00355136
0.00342353
0.00332144
0.00325986
0.00323126
0.00319454
0.00305977
0.00278786
0.00239571
0.00196674
0.00159138
0.00152239
0.00193207
0.0025549
0.00321385
0.00239091
0.00296836
0.00345588
0.00384763
0.00412872
0.00430709
0.00438686
0.00439661
0.00436737
0.00430229
0.00422042
0.00412729
0.00401317
0.00387813
0.00372454
0.00357487
0.00343876
0.00332554
0.00324945
0.00320671
0.00316089
0.00304045
0.00280466
0.00244718
0.00204045
0.00167149
0.00157756
0.00193935
0.00251488
0.00314545
0.00228198
0.00285681
0.00335128
0.00375643
0.00405095
0.00423597
0.00433139
0.00437327
0.00434879
0.00428725
0.00420491
0.0041043
0.00398229
0.00384068
0.00368268
0.00352363
0.00337312
0.00324918
0.00316171
0.0031079
0.00305808
0.00295861
0.00276987
0.00246508
0.0020914
0.00174157
0.00163844
0.00196732
0.00250225
0.00309484
0.00220319
0.0027637
0.0032462
0.00362858
0.00390634
0.00410618
0.00423485
0.00428328
0.0042585
0.00419447
0.00410391
0.00399096
0.00385337
0.00369744
0.00352869
0.00336187
0.00320655
0.00308048
0.00299014
0.00293157
0.00288569
0.00281437
0.00268058
0.0024429
0.00211331
0.00179464
0.00169063
0.00199929
0.00249731
0.00305202
0.00214808
0.00265555
0.00308634
0.00344181
0.00372273
0.00392162
0.00404023
0.00406624
0.00402762
0.00395372
0.00385419
0.00373357
0.00358989
0.00342937
0.00325903
0.00310086
0.00296206
0.00285036
0.00276898
0.00271671
0.0026817
0.00263918
0.00255582
0.00238825
0.00210998
0.00182775
0.00172689
0.00201905
0.00246192
0.00296873
0.00207866
0.00252212
0.00290263
0.00321303
0.00344511
0.00360516
0.00368633
0.00368401
0.0036349
0.00356083
0.00346671
0.00335641
0.00323302
0.00309934
0.00296189
0.00283933
0.00273903
0.00265889
0.00259666
0.00255594
0.00252865
0.00250021
0.00244645
0.00232976
0.0021089
0.00185116
0.00174685
0.00200123
0.00235163
0.00278085
0.00199961
0.00233996
0.00263029
0.00286488
0.00303296
0.00314827
0.00321173
0.00321052
0.00318132
0.00313672
0.00307814
0.00300862
0.00293301
0.00285376
0.00277463
0.00270396
0.00264648
0.00259852
0.00255591
0.00252295
0.00249518
0.00246476
0.00241689
0.00232429
0.00215149
0.00190663
0.00176206
0.00191967
0.00218293
0.00249976
0.00190717
0.00215759
0.00236178
0.00253135
0.00266365
0.00276572
0.0028384
0.00286727
0.00287805
0.00287656
0.00286251
0.00283937
0.00281116
0.00278017
0.00274586
0.00270746
0.00267309
0.00263864
0.00260655
0.00257772
0.00255064
0.00252102
0.00247935
0.00240663
0.00227575
0.00207279
0.00188542
0.00192186
0.00208667
0.00229156
0.00210886
0.00226469
0.00239742
0.00251129
0.00260637
0.00268616
0.00274877
0.00278478
0.00280906
0.00282222
0.00282448
0.00281799
0.00280252
0.00278111
0.00275268
0.00272467
0.00269822
0.00267301
0.00265001
0.00263032
0.00261326
0.00259558
0.00257068
0.00252575
0.00244799
0.00232703
0.00219897
0.00218442
0.00226949
0.0023809
0.00250991
0.00256418
0.00261312
0.0026577
0.00269783
0.00273221
0.00275892
0.00277362
0.00278365
0.00278436
0.00277973
0.00277495
0.00276468
0.00274647
0.00272081
0.00269774
0.00267955
0.0026665
0.00265869
0.00265569
0.00265529
0.002655
0.00265235
0.00264193
0.00261922
0.00258509
0.00254825
0.00254413
0.00257087
0.00260396
0.000241463
0.000252729
0.000249357
0.00024245
0.000233108
0.000222283
0.000210725
0.00019899
0.000187439
0.000176321
0.000165784
0.000155928
0.000146814
0.000137917
0.000128189
0.000117747
0.000106975
9.69179e-05
8.76382e-05
7.97134e-05
6.74672e-05
0.000328959
7.13572e-05
8.06858e-05
9.49852e-05
0.00010746
0.000114452
0.000124076
0.00013672
0.000164503
0.00114675
0.00134483
0.00135104
0.00127201
0.00116895
0.00106322
0.000966014
0.000878273
0.000798191
0.000723442
0.000651659
0.000581264
0.000504768
0.000426078
0.000367656
0.00034521
0.000347916
0.000370614
0.000398347
0.000431784
0.000460725
0.00043305
0.000305468
0.000293487
0.000455298
0.000625225
0.000778546
0.000896552
0.000961357
0.000906087
0.00193789
0.00234538
0.00244389
0.00236889
0.00222257
0.00205202
0.00188314
0.00172279
0.00157057
0.00142458
0.00128209
0.00114028
0.000984065
0.000826166
0.000712365
0.000669625
0.000672789
0.000708671
0.000752178
0.000805055
0.000863323
0.000769687
0.000544929
0.000484823
0.000688235
0.000980798
0.00129283
0.00155054
0.00168153
0.0016217
0.0025938
0.00312417
0.00330054
0.0032545
0.00309957
0.00290042
0.00268941
0.00247919
0.00227221
0.00206901
0.00186846
0.00166537
0.00143726
0.00121194
0.00105686
0.000998418
0.000999222
0.00104057
0.00109291
0.00115646
0.001217
0.00108585
0.000783294
0.000636063
0.000806161
0.00116428
0.00162501
0.00204109
0.00226231
0.00223619
0.00310831
0.00375079
0.00397323
0.00395936
0.00380958
0.00360221
0.0033681
0.0031252
0.00287847
0.00263236
0.00238628
0.00212661
0.00184316
0.00156949
0.00138515
0.00131631
0.00131432
0.00135802
0.00141685
0.0014886
0.00154476
0.00138405
0.00102837
0.000794888
0.000903355
0.0012892
0.00187899
0.00240868
0.00272242
0.00275764
0.00354581
0.00421946
0.00450824
0.00452208
0.00438471
0.00418071
0.00393593
0.00367214
0.00339718
0.00311931
0.00283377
0.00253434
0.00220775
0.00189971
0.00169744
0.00162217
0.00161698
0.00166109
0.00172488
0.00180464
0.0018537
0.00166894
0.00127691
0.000966454
0.000997433
0.00138366
0.00207732
0.00272707
0.00311198
0.00321778
0.00391937
0.00456377
0.00489849
0.00496686
0.00485178
0.00465678
0.00441123
0.00413421
0.00383978
0.00353863
0.00322285
0.00289464
0.00253853
0.00220806
0.00199693
0.00191728
0.00190865
0.00195104
0.00201874
0.00210914
0.00214527
0.00194112
0.00152376
0.00115057
0.0011092
0.00147051
0.00223232
0.00299179
0.00346155
0.00362473
0.00421401
0.00483029
0.00517749
0.00529407
0.00522749
0.00504773
0.00480835
0.00452389
0.0042167
0.00389928
0.00356401
0.00321376
0.00284045
0.00250013
0.00228664
0.00220338
0.00219041
0.0022292
0.00229979
0.00240104
0.00242026
0.00219905
0.00176373
0.00134204
0.0012359
0.00155335
0.00235498
0.00320786
0.0037628
0.00399238
0.00447637
0.00506517
0.0054143
0.00554848
0.00552014
0.00536793
0.00513847
0.00485225
0.00453687
0.0042095
0.00386559
0.00349885
0.00311778
0.00278075
0.00256872
0.00248165
0.00246313
0.00249652
0.00256949
0.00267795
0.00267772
0.00244087
0.00199246
0.00153294
0.00136557
0.00164057
0.00245566
0.00338422
0.00401973
0.00432638
0.00471784
0.00526963
0.00561319
0.00575938
0.00575013
0.00562676
0.00541211
0.00512754
0.00480776
0.00447677
0.00413068
0.0037598
0.00337533
0.00305128
0.00284411
0.00275266
0.00272738
0.00275372
0.00282919
0.00293826
0.00291631
0.00266465
0.00220652
0.0017179
0.00149381
0.00172716
0.0025413
0.00352782
0.00423739
0.00462569
0.00492909
0.00544188
0.00577702
0.00593186
0.00594004
0.00583881
0.0056461
0.00536137
0.00503531
0.00470721
0.00436453
0.00399983
0.00362292
0.00331364
0.00311324
0.00301656
0.0029835
0.00300122
0.0030799
0.00318038
0.00313479
0.00286852
0.00240348
0.00189378
0.00161798
0.00181179
0.00261556
0.00364406
0.00442345
0.00489058
0.00509808
0.00557905
0.00590742
0.00607043
0.0060941
0.00601123
0.00584139
0.00556841
0.00523834
0.00490698
0.00457415
0.00422288
0.00386459
0.00356994
0.00337633
0.00327331
0.00323158
0.00323947
0.00331883
0.00340243
0.00333196
0.0030509
0.00258143
0.00205929
0.00173642
0.0018936
0.00267963
0.0037364
0.0045803
0.00512077
0.00521561
0.00567801
0.00600524
0.00617872
0.00621529
0.0061496
0.00599964
0.00575328
0.0054224
0.0050895
0.00476643
0.00443339
0.00409931
0.00382234
0.00363285
0.00352268
0.0034714
0.00346877
0.0035441
0.00360228
0.00350689
0.00321046
0.0027392
0.00221332
0.0018471
0.00197386
0.00273379
0.00380705
0.00470825
0.00531527
0.00527175
0.00573391
0.00607026
0.0062587
0.00630887
0.00625855
0.0061248
0.00589879
0.0055926
0.00525856
0.00494638
0.00463507
0.00432812
0.00406994
0.00388185
0.00376421
0.00370243
0.00368895
0.00375315
0.00377906
0.00365881
0.00334763
0.00287708
0.00235142
0.0019523
0.00205383
0.00277876
0.00385837
0.00480834
0.00547508
0.00526738
0.00574911
0.00610017
0.00631139
0.00637935
0.00634259
0.00622307
0.00602255
0.00573436
0.00541704
0.00511805
0.00483025
0.00455125
0.00431144
0.00412336
0.00399713
0.00392346
0.00389884
0.00394177
0.00393106
0.00378644
0.00346327
0.00299436
0.00247196
0.00205372
0.00212243
0.0028154
0.00389518
0.0048823
0.00559843
0.00520919
0.00572298
0.00610372
0.00633612
0.00643048
0.00640638
0.00630182
0.00612379
0.00585484
0.00556706
0.0052845
0.00502074
0.00476826
0.00454264
0.00435525
0.00421937
0.0041315
0.00409343
0.00410358
0.00405424
0.00388711
0.003557
0.0030912
0.00257519
0.0021487
0.00217698
0.00284513
0.00392057
0.00493182
0.0056772
0.00510142
0.00565985
0.00607916
0.00634052
0.00646157
0.00645469
0.00636541
0.00620725
0.00596617
0.00570943
0.00544753
0.00520637
0.00497802
0.00475978
0.00457358
0.00442641
0.00432092
0.00426212
0.00423013
0.00414245
0.00395637
0.00362655
0.00316757
0.00266133
0.00223661
0.00222894
0.00286627
0.00392356
0.00494222
0.00571806
0.00495264
0.00556543
0.00603014
0.00632814
0.0064738
0.00649004
0.0064177
0.00627775
0.00606987
0.00584179
0.00560522
0.00538378
0.0051691
0.00496352
0.00477223
0.00460968
0.00448239
0.00439012
0.00431005
0.00418759
0.00398794
0.00366748
0.00322208
0.00273014
0.00231717
0.00228402
0.00287856
0.00389992
0.00492004
0.00572358
0.00477464
0.0054468
0.00596027
0.00629691
0.00647275
0.00651495
0.00646132
0.00633888
0.00616578
0.00596165
0.00575086
0.00554463
0.00534377
0.00514015
0.00493843
0.00475436
0.00459699
0.00446012
0.00433239
0.0041806
0.00397456
0.00367295
0.00325278
0.00277991
0.00238802
0.00234066
0.00289043
0.00385539
0.00487046
0.00569781
0.00458108
0.00531225
0.00587366
0.00624833
0.00645527
0.00652462
0.0064919
0.00638769
0.00625211
0.00607408
0.00587261
0.00567503
0.00548007
0.00527112
0.00505131
0.00483853
0.00463899
0.00445404
0.00428607
0.0041133
0.00390985
0.00363632
0.00325661
0.00280871
0.00244205
0.00239081
0.00291533
0.003805
0.00479307
0.00564269
0.00438682
0.00517117
0.00577461
0.00618279
0.00641958
0.00651547
0.0065063
0.00643968
0.00630625
0.0061388
0.00595218
0.00575368
0.00554991
0.00532704
0.0050826
0.00483281
0.00458572
0.00436039
0.00416529
0.00398279
0.00379189
0.00355554
0.00322986
0.00281578
0.00247641
0.00242433
0.00294405
0.00377105
0.00470043
0.00555002
0.004208
0.00503279
0.00566498
0.00610026
0.00636088
0.00644908
0.00645735
0.00641697
0.00629294
0.00613278
0.0059525
0.00574773
0.00552191
0.00527309
0.00499874
0.00471158
0.00443019
0.00418326
0.00397691
0.00379718
0.00362829
0.00343562
0.0031723
0.00280415
0.00249032
0.00243858
0.00296068
0.00373794
0.00462491
0.00544699
0.00406154
0.00488675
0.00550629
0.00591015
0.00613779
0.0062722
0.00632474
0.0062904
0.00616793
0.00600908
0.00582701
0.00561471
0.00536645
0.0050899
0.00478311
0.0044773
0.00419317
0.00394744
0.00374674
0.00358196
0.00344112
0.00329308
0.00309153
0.00278231
0.00248844
0.00243807
0.00295648
0.00367883
0.00453195
0.00532425
0.00389007
0.00463347
0.00518158
0.00556545
0.00583726
0.00599825
0.00605482
0.00600426
0.00587921
0.0057204
0.00553801
0.00532359
0.00507139
0.0047865
0.00447265
0.004179
0.00392266
0.00370106
0.00352043
0.00337913
0.0032664
0.00315682
0.00300878
0.00276208
0.00248252
0.00241965
0.00290185
0.00354145
0.00433975
0.00508046
0.00360105
0.00425866
0.00477259
0.00515583
0.00540327
0.00555254
0.00559173
0.00553018
0.00541333
0.00526884
0.00510318
0.00490773
0.00467875
0.00442257
0.00414585
0.00389435
0.00368529
0.00350053
0.00334635
0.00323011
0.00314345
0.0030643
0.0029566
0.00276357
0.00249449
0.00238688
0.00275882
0.0033147
0.00397308
0.00463073
0.00331884
0.00384392
0.00426307
0.00457939
0.00479822
0.00492394
0.00496387
0.00491994
0.00483839
0.0047352
0.00461306
0.00446451
0.00428852
0.00409293
0.00388396
0.00369215
0.00352548
0.00337912
0.00326208
0.00317416
0.00310611
0.00304291
0.0029578
0.00280506
0.00255692
0.00238261
0.0025734
0.00302845
0.00351299
0.00402377
0.00294062
0.00334597
0.00368486
0.0039435
0.00413384
0.00426205
0.00433141
0.00433531
0.00431065
0.00426642