/*--------------------------------*- C++ -*----------------------------------*\
| =========                 |                                                 |
| \\      /  F ield         | OpenFOAM: The Open Source CFD Toolbox           |
|  \\    /   O peration     | Version:  5.0                                   |
|   \\  /    A nd           | Web:      www.OpenFOAM.org                      |
|    \\/     M anipulation  |                                                 |
\*---------------------------------------------------------------------------*/
FoamFile
{
    version     2.0;
    format      ascii;
    class       volScalarField;
    location    "950/porous";
    object      T;
}
// * * * * * * * * * * * * * * * * * * * * * * * * * * * * * * * * * * * * * //

dimensions      [0 0 0 1 0 0 0];

internalField   nonuniform List<scalar> 
36000
(
400
400
400
400
399.999
399.581
399.203
398.852
398.519
398.198
397.885
397.579
397.277
396.98
396.687
396.398
396.111
395.828
395.547
395.27
394.996
394.722
394.448
394.171
393.893
393.616
393.341
393.068
392.798
392.532
392.27
392.014
391.765
391.526
391.306
391.829
392.183
392.453
392.672
392.858
400
400
400
400
399.999
399.63
399.298
398.991
398.702
398.426
398.16
397.902
397.65
397.403
397.161
396.923
396.69
396.46
396.233
396.01
395.79
395.572
395.353
395.132
394.911
394.691
394.473
394.257
394.044
393.834
393.628
393.427
393.232
393.044
392.868
393.212
393.454
393.64
393.789
393.92
400
400
400
400
399.999
399.637
399.313
399.015
398.737
398.473
398.221
397.977
397.741
397.511
397.287
397.069
396.856
396.647
396.443
396.243
396.047
395.853
395.658
395.462
395.266
395.071
394.879
394.689
394.503
394.32
394.141
393.968
393.8
393.64
393.49
393.807
394.034
394.209
394.349
394.47
400
400
400
400
399.999
399.636
399.312
399.015
398.739
398.477
398.227
397.986
397.753
397.528
397.309
397.096
396.889
396.686
396.489
396.297
396.109
395.923
395.735
395.547
395.359
395.173
394.989
394.808
394.63
394.457
394.288
394.124
393.965
393.815
393.675
393.986
394.211
394.385
394.526
394.646
400
400
400
400
399.999
399.636
399.312
399.015
398.739
398.477
398.227
397.987
397.756
397.531
397.314
397.102
396.897
396.696
396.502
396.312
396.127
395.943
395.758
395.572
395.386
395.203
395.022
394.843
394.668
394.498
394.331
394.171
394.016
393.869
393.732
394.042
394.267
394.44
394.582
394.702
400
400
400
400
399.999
399.635
399.31
399.013
398.736
398.475
398.225
397.985
397.753
397.529
397.312
397.101
396.896
396.696
396.503
396.315
396.131
395.947
395.762
395.576
395.391
395.208
395.028
394.851
394.676
394.506
394.341
394.181
394.027
393.882
393.746
394.056
394.28
394.454
394.595
394.715
400
400
400
400
399.999
399.635
399.31
399.013
398.737
398.475
398.225
397.985
397.754
397.531
397.314
397.103
396.899
396.7
396.507
396.32
396.136
395.953
395.768
395.582
395.397
395.215
395.035
394.858
394.684
394.514
394.349
394.189
394.036
393.89
393.754
394.064
394.288
394.461
394.603
394.723
400
400
400
400
399.999
399.635
399.31
399.013
398.737
398.475
398.226
397.986
397.755
397.532
397.316
397.106
396.901
396.703
396.511
396.323
396.139
395.955
395.77
395.585
395.4
395.218
395.038
394.861
394.687
394.517
394.352
394.192
394.039
393.893
393.757
394.066
394.29
394.464
394.605
394.725
400
400
400
400
399.999
399.635
399.311
399.014
398.738
398.477
398.228
397.989
397.759
397.537
397.321
397.112
396.909
396.711
396.519
396.33
396.144
395.96
395.775
395.59
395.406
395.224
395.045
394.868
394.694
394.524
394.359
394.199
394.045
393.899
393.762
394.071
394.295
394.469
394.61
394.73
400
400
400
400
399.999
399.635
399.311
399.016
398.74
398.479
398.231
397.992
397.763
397.542
397.327
397.119
396.916
396.718
396.525
396.334
396.146
395.96
395.776
395.592
395.41
395.228
395.049
394.873
394.699
394.529
394.363
394.203
394.049
393.903
393.765
394.074
394.298
394.471
394.612
394.732
400
400
400
400
399.999
399.636
399.313
399.018
398.743
398.483
398.235
397.997
397.769
397.549
397.335
397.128
396.926
396.728
396.531
396.338
396.148
395.961
395.778
395.596
395.414
395.234
395.055
394.879
394.705
394.535
394.37
394.209
394.055
393.907
393.768
394.077
394.301
394.474
394.615
394.735
400
400
400
400
399.999
399.637
399.314
399.02
398.746
398.486
398.238
398.001
397.773
397.554
397.342
397.136
396.934
396.734
396.535
396.341
396.15
395.962
395.778
395.597
395.417
395.238
395.06
394.884
394.711
394.541
394.375
394.214
394.059
393.911
393.77
394.08
394.303
394.477
394.618
394.738
400
400
400
400
399.999
399.638
399.317
399.023
398.749
398.489
398.242
398.005
397.778
397.559
397.348
397.143
396.941
396.739
396.54
396.346
396.155
395.966
395.782
395.602
395.424
395.246
395.068
394.893
394.72
394.549
394.383
394.222
394.066
393.916
393.774
394.083
394.307
394.481
394.622
394.741
400
400
400
400
399.999
399.639
399.319
399.025
398.751
398.492
398.245
398.008
397.78
397.561
397.35
397.146
396.944
396.742
396.543
396.348
396.157
395.969
395.785
395.606
395.429
395.252
395.075
394.9
394.727
394.557
394.39
394.228
394.072
393.92
393.776
394.086
394.31
394.483
394.625
394.744
400
400
400
400
399.999
399.64
399.32
399.027
398.754
398.494
398.247
398.009
397.781
397.562
397.351
397.145
396.944
396.742
396.544
396.348
396.157
395.969
395.786
395.608
395.432
395.256
395.081
394.906
394.733
394.562
394.396
394.233
394.076
393.923
393.778
394.088
394.312
394.485
394.627
394.746
400
400
400
400
399.999
399.643
399.324
399.031
398.758
398.498
398.25
398.012
397.783
397.562
397.35
397.144
396.942
396.741
396.542
396.347
396.156
395.968
395.785
395.608
395.433
395.258
395.083
394.909
394.736
394.565
394.398
394.235
394.076
393.922
393.773
394.085
394.31
394.483
394.625
394.745
400
400
400
400
399.999
399.644
399.326
399.033
398.759
398.499
398.251
398.012
397.782
397.561
397.347
397.14
396.938
396.737
396.538
396.344
396.153
395.965
395.782
395.605
395.431
395.256
395.082
394.908
394.735
394.564
394.397
394.233
394.073
393.918
393.769
394.081
394.306
394.48
394.621
394.741
400
400
400
400
399.999
399.645
399.328
399.036
398.762
398.501
398.252
398.013
397.782
397.559
397.344
397.136
396.934
396.733
396.535
396.341
396.15
395.962
395.779
395.602
395.427
395.253
395.078
394.904
394.731
394.561
394.393
394.228
394.069
393.913
393.762
394.074
394.3
394.474
394.616
394.736
400
400
400
400
399.999
399.647
399.33
399.038
398.764
398.503
398.253
398.013
397.782
397.558
397.342
397.133
396.929
396.729
396.532
396.338
396.148
395.96
395.778
395.6
395.424
395.248
395.073
394.899
394.726
394.555
394.386
394.222
394.061
393.904
393.752
394.066
394.292
394.467
394.609
394.729
400
400
400
400
399.999
399.648
399.332
399.04
398.765
398.504
398.254
398.013
397.781
397.557
397.34
397.129
396.926
396.727
396.531
396.339
396.149
395.963
395.781
395.602
395.423
395.246
395.07
394.895
394.722
394.55
394.381
394.216
394.055
393.898
393.746
394.06
394.287
394.462
394.604
394.725
400
400
400
400
399.999
399.649
399.334
399.041
398.767
398.505
398.255
398.014
397.781
397.556
397.337
397.126
396.922
396.724
396.53
396.34
396.152
395.967
395.784
395.603
395.422
395.243
395.066
394.89
394.716
394.544
394.375
394.209
394.048
393.89
393.737
394.052
394.279
394.455
394.598
394.719
400
400
400
400
399.999
399.65
399.335
399.043
398.768
398.506
398.256
398.014
397.781
397.555
397.337
397.125
396.92
396.722
396.53
396.341
396.155
395.97
395.786
395.603
395.421
395.241
395.063
394.887
394.712
394.54
394.37
394.204
394.042
393.884
393.731
394.047
394.275
394.451
394.594
394.715
400
400
400
400
399.999
399.651
399.336
399.043
398.769
398.507
398.256
398.014
397.78
397.554
397.335
397.122
396.917
396.719
396.528
396.341
396.155
395.969
395.784
395.6
395.417
395.236
395.057
394.88
394.705
394.533
394.363
394.197
394.035
393.876
393.723
394.04
394.268
394.444
394.588
394.709
400
400
400
400
399.999
399.651
399.336
399.045
398.77
398.508
398.257
398.015
397.781
397.555
397.336
397.123
396.917
396.719
396.529
396.342
396.156
395.969
395.783
395.598
395.415
395.234
395.055
394.877
394.702
394.529
394.36
394.193
394.031
393.872
393.719
394.036
394.264
394.441
394.585
394.707
400
400
400
400
399.999
399.652
399.337
399.045
398.77
398.508
398.257
398.015
397.781
397.554
397.335
397.122
396.916
396.718
396.527
396.339
396.152
395.965
395.778
395.593
395.409
395.228
395.048
394.87
394.695
394.522
394.352
394.185
394.023
393.864
393.711
394.028
394.257
394.433
394.577
394.699
400
400
400
400
399.999
399.652
399.338
399.046
398.772
398.51
398.259
398.017
397.783
397.556
397.336
397.123
396.917
396.718
396.527
396.338
396.15
395.961
395.774
395.588
395.404
395.222
395.041
394.863
394.687
394.513
394.343
394.175
394.012
393.852
393.698
394.016
394.244
394.421
394.565
394.687
400
400
400
400
399.999
399.652
399.337
399.045
398.77
398.509
398.257
398.014
397.779
397.551
397.33
397.115
396.908
396.708
396.513
396.322
396.131
395.94
395.75
395.562
395.376
395.191
395.008
394.827
394.649
394.473
394.299
394.129
393.962
393.8
393.643
393.961
394.191
394.367
394.511
394.632
400
400
400
400
399.999
399.652
399.337
399.044
398.767
398.503
398.249
398.003
397.764
397.532
397.306
397.086
396.873
396.667
396.465
396.266
396.067
395.869
395.672
395.476
395.282
395.089
394.898
394.708
394.521
394.337
394.154
393.975
393.799
393.626
393.46
393.784
394.015
394.193
394.335
394.458
400
400
400
400
399.999
399.645
399.321
399.017
398.73
398.453
398.186
397.925
397.67
397.421
397.176
396.937
396.704
396.476
396.253
396.03
395.808
395.586
395.365
395.145
394.926
394.708
394.491
394.276
394.063
393.852
393.643
393.436
393.233
393.034
392.841
393.192
393.438
393.627
393.777
393.909
400
400
400
400
399.999
399.596
399.226
398.878
398.545
398.223
397.908
397.599
397.294
396.994
396.699
396.408
396.122
395.842
395.565
395.289
395.012
394.735
394.459
394.183
393.908
393.634
393.362
393.091
392.821
392.554
392.289
392.027
391.768
391.515
391.273
391.806
392.164
392.436
392.658
392.845
400
400
400
400
399.999
399.777
399.526
399.257
398.979
398.696
398.411
398.125
397.84
397.556
397.273
396.991
396.711
396.433
396.156
395.882
395.61
395.338
395.067
394.793
394.519
394.245
393.971
393.699
393.43
393.163
392.899
392.641
392.387
392.142
391.91
392.157
392.392
392.603
392.789
392.952
400
400
400
400
400
399.809
399.596
399.371
399.139
398.904
398.668
398.433
398.2
397.968
397.738
397.511
397.286
397.063
396.843
396.625
396.409
396.195
395.982
395.767
395.552
395.337
395.124
394.912
394.701
394.494
394.289
394.087
393.89
393.699
393.516
393.63
393.751
393.868
393.975
394.076
400
400
400
400
400
399.813
399.607
399.39
399.168
398.945
398.722
398.502
398.284
398.069
397.857
397.649
397.443
397.242
397.043
396.848
396.656
396.466
396.276
396.086
395.896
395.707
395.52
395.334
395.151
394.97
394.792
394.618
394.448
394.284
394.127
394.229
394.338
394.444
394.541
394.633
400
400
400
400
400
399.813
399.606
399.39
399.169
398.947
398.727
398.509
398.295
398.084
397.877
397.673
397.474
397.278
397.086
396.898
396.713
396.531
396.349
396.166
395.985
395.804
395.625
395.448
395.273
395.101
394.933
394.768
394.608
394.454
394.306
394.407
394.515
394.619
394.717
394.808
400
400
400
400
400
399.813
399.606
399.39
399.169
398.948
398.728
398.511
398.297
398.087
397.881
397.679
397.481
397.287
397.097
396.911
396.729
396.55
396.37
396.19
396.011
395.833
395.656
395.482
395.31
395.141
394.975
394.814
394.657
394.506
394.362
394.463
394.57
394.675
394.773
394.864
400
400
400
400
400
399.812
399.605
399.388
399.167
398.945
398.725
398.507
398.293
398.084
397.878
397.676
397.478
397.285
397.096
396.911
396.731
396.551
396.372
396.193
396.014
395.837
395.661
395.488
395.316
395.148
394.983
394.823
394.667
394.517
394.374
394.475
394.582
394.687
394.786
394.877
400
400
400
400
400
399.812
399.605
399.388
399.167
398.945
398.725
398.508
398.294
398.085
397.879
397.678
397.481
397.288
397.099
396.915
396.735
396.556
396.377
396.198
396.019
395.842
395.667
395.494
395.323
395.155
394.99
394.83
394.674
394.525
394.382
394.483
394.59
394.695
394.793
394.884
400
400
400
400
400
399.812
399.605
399.387
399.166
398.944
398.724
398.507
398.294
398.084
397.879
397.678
397.481
397.289
397.101
396.917
396.736
396.557
396.378
396.199
396.021
395.844
395.669
395.496
395.325
395.157
394.992
394.832
394.676
394.527
394.384
394.484
394.592
394.697
394.795
394.886
400
400
400
400
400
399.812
399.605
399.388
399.167
398.946
398.726
398.509
398.296
398.088
397.883
397.683
397.487
397.295
397.107
396.923
396.741
396.561
396.382
396.204
396.026
395.849
395.674
395.502
395.331
395.163
394.999
394.838
394.682
394.532
394.389
394.489
394.597
394.702
394.8
394.891
400
400
400
400
400
399.812
399.605
399.389
399.168
398.947
398.727
398.511
398.299
398.091
397.887
397.687
397.492
397.3
397.112
396.926
396.743
396.563
396.384
396.205
396.028
395.852
395.677
395.505
395.334
395.166
395.002
394.841
394.685
394.535
394.391
394.492
394.599
394.704
394.802
394.893
400
400
400
400
400
399.813
399.606
399.39
399.17
398.949
398.73
398.514
398.303
398.096
397.893
397.694
397.5
397.308
397.118
396.932
396.747
396.565
396.386
396.208
396.032
395.856
395.682
395.51
395.34
395.172
395.007
394.847
394.691
394.54
394.395
394.495
394.602
394.707
394.805
394.896
400
400
400
400
400
399.813
399.607
399.391
399.171
398.951
398.732
398.517
398.306
398.099
397.897
397.7
397.506
397.313
397.123
396.935
396.75
396.567
396.387
396.21
396.034
395.859
395.686
395.514
395.344
395.176
395.012
394.851
394.695
394.543
394.398
394.498
394.605
394.709
394.807
394.898
400
400
400
400
400
399.814
399.608
399.393
399.173
398.953
398.735
398.52
398.309
398.103
397.902
397.705
397.511
397.318
397.127
396.939
396.754
396.571
396.391
396.214
396.039
395.865
395.692
395.521
395.351
395.184
395.019
394.858
394.701
394.549
394.402
394.502
394.609
394.713
394.811
394.902
400
400
400
400
400
399.814
399.609
399.394
399.175
398.955
398.737
398.522
398.311
398.105
397.904
397.707
397.513
397.321
397.13
396.941
396.756
396.573
396.393
396.217
396.043
395.87
395.698
395.527
395.357
395.19
395.025
394.864
394.707
394.554
394.405
394.505
394.612
394.716
394.814
394.905
400
400
400
400
400
399.815
399.61
399.396
399.177
398.957
398.739
398.524
398.312
398.106
397.905
397.708
397.513
397.321
397.13
396.942
396.756
396.573
396.394
396.218
396.045
395.873
395.701
395.531
395.362
395.195
395.03
394.868
394.711
394.557
394.408
394.507
394.614
394.719
394.816
394.907
400
400
400
400
400
399.816
399.612
399.398
399.18
398.96
398.741
398.526
398.314
398.107
397.905
397.707
397.513
397.32
397.129
396.941
396.755
396.573
396.393
396.218
396.045
395.874
395.703
395.533
395.364
395.197
395.032
394.87
394.712
394.557
394.406
394.506
394.613
394.717
394.815
394.905
400
400
400
400
400
399.816
399.613
399.399
399.181
398.961
398.742
398.526
398.314
398.106
397.903
397.705
397.51
397.317
397.126
396.938
396.753
396.57
396.39
396.215
396.043
395.872
395.701
395.532
395.363
395.196
395.031
394.869
394.71
394.554
394.402
394.502
394.609
394.714
394.811
394.902
400
400
400
400
400
399.817
399.615
399.401
399.183
398.963
398.744
398.528
398.315
398.106
397.902
397.703
397.507
397.314
397.123
396.935
396.75
396.567
396.388
396.213
396.04
395.869
395.699
395.529
395.36
395.193
395.028
394.865
394.706
394.549
394.397
394.497
394.604
394.709
394.807
394.898
400
400
400
400
400
399.818
399.616
399.403
399.184
398.964
398.745
398.528
398.315
398.106
397.901
397.701
397.505
397.312
397.121
396.933
396.748
396.565
396.386
396.211
396.038
395.866
395.695
395.524
395.355
395.188
395.022
394.859
394.699
394.542
394.389
394.489
394.597
394.701
394.8
394.891
400
400
400
400
400
399.819
399.617
399.404
399.186
398.965
398.746
398.529
398.316
398.106
397.9
397.699
397.503
397.31
397.12
396.933
396.749
396.567
396.389
396.213
396.038
395.865
395.693
395.522
395.353
395.185
395.019
394.856
394.695
394.538
394.384
394.484
394.592
394.697
394.796
394.887
400
400
400
400
400
399.819
399.618
399.405
399.187
398.967
398.747
398.53
398.316
398.105
397.899
397.697
397.5
397.307
397.119
396.933
396.75
396.57
396.391
396.214
396.038
395.864
395.691
395.519
395.349
395.181
395.014
394.85
394.689
394.532
394.377
394.478
394.586
394.691
394.79
394.881
400
400
400
400
400
399.82
399.619
399.406
399.188
398.968
398.748
398.531
398.317
398.106
397.899
397.697
397.499
397.307
397.119
396.935
396.753
396.572
396.394
396.216
396.039
395.864
395.69
395.518
395.347
395.178
395.011
394.847
394.686
394.528
394.373
394.474
394.582
394.687
394.786
394.878
400
400
400
400
400
399.82
399.619
399.407
399.189
398.968
398.749
398.531
398.317
398.106
397.899
397.696
397.498
397.305
397.117
396.934
396.752
396.572
396.392
396.214
396.036
395.86
395.686
395.513
395.342
395.173
395.006
394.841
394.679
394.521
394.366
394.467
394.576
394.681
394.78
394.872
400
400
400
400
400
399.82
399.62
399.408
399.19
398.97
398.751
398.533
398.319
398.108
397.9
397.698
397.499
397.306
397.119
396.936
396.754
396.573
396.393
396.214
396.036
395.86
395.685
395.512
395.34
395.171
395.004
394.839
394.677
394.519
394.364
394.465
394.573
394.679
394.778
394.87
400
400
400
400
400
399.821
399.621
399.408
399.19
398.971
398.751
398.533
398.318
398.107
397.9
397.697
397.498
397.305
397.118
396.934
396.751
396.57
396.389
396.21
396.032
395.855
395.68
395.506
395.334
395.164
394.997
394.832
394.67
394.511
394.356
394.457
394.565
394.671
394.771
394.863
400
400
400
400
400
399.821
399.622
399.41
399.192
398.973
398.754
398.536
398.321
398.11
397.902
397.699
397.501
397.307
397.119
396.934
396.751
396.568
396.387
396.207
396.028
395.851
395.675
395.5
395.328
395.157
394.989
394.823
394.66
394.501
394.345
394.446
394.554
394.66
394.759
394.85
400
400
400
400
400
399.821
399.621
399.409
399.191
398.972
398.752
398.534
398.318
398.106
397.897
397.692
397.492
397.297
397.107
396.92
396.734
396.549
396.365
396.183
396.001
395.821
395.643
395.466
395.291
395.118
394.947
394.778
394.612
394.449
394.29
394.391
394.5
394.605
394.704
394.796
400
400
400
400
400
399.821
399.621
399.408
399.189
398.967
398.745
398.524
398.305
398.088
397.875
397.666
397.46
397.259
397.063
396.868
396.675
396.483
396.291
396.101
395.912
395.724
395.537
395.352
395.168
394.986
394.806
394.628
394.453
394.281
394.113
394.215
394.324
394.431
394.529
394.622
400
400
400
400
400
399.816
399.61
399.388
399.158
398.925
398.689
398.453
398.218
397.985
397.754
397.525
397.3
397.078
396.86
396.643
396.426
396.21
395.995
395.78
395.566
395.353
395.14
394.929
394.719
394.511
394.304
394.099
393.897
393.698
393.502
393.617
393.739
393.857
393.965
394.067
400
400
400
400
399.999
399.786
399.54
399.275
398.999
398.716
398.431
398.144
397.857
397.57
397.285
397.002
396.722
396.446
396.171
395.898
395.625
395.352
395.078
394.805
394.533
394.261
393.99
393.72
393.451
393.184
392.918
392.655
392.395
392.139
391.89
392.139
392.376
392.589
392.777
392.941
400
400
400
400
400
399.861
399.701
399.521
399.326
399.118
398.898
398.67
398.434
398.193
397.947
397.699
397.447
397.194
396.94
396.685
396.429
396.173
395.916
395.656
395.395
395.133
394.871
394.608
394.347
394.086
393.828
393.573
393.321
393.075
392.837
392.911
393.005
393.109
393.215
393.313
400
400
400
400
400
399.88
399.746
399.598
399.44
399.273
399.098
398.917
398.732
398.543
398.352
398.159
397.964
397.769
397.573
397.377
397.182
396.986
396.79
396.592
396.394
396.195
395.996
395.798
395.6
395.403
395.208
395.015
394.825
394.638
394.456
394.457
394.471
394.497
394.528
394.563
400
400
400
400
400
399.883
399.753
399.611
399.461
399.303
399.139
398.971
398.8
398.626
398.452
398.276
398.101
397.925
397.75
397.577
397.404
397.231
397.058
396.885
396.712
396.538
396.365
396.193
396.022
395.852
395.684
395.519
395.356
395.196
395.042
395.044
395.057
395.078
395.105
395.136
400
400
400
400
400
399.882
399.752
399.611
399.461
399.305
399.143
398.977
398.809
398.639
398.468
398.297
398.127
397.957
397.788
397.621
397.455
397.289
397.124
396.958
396.793
396.627
396.463
396.299
396.136
395.976
395.817
395.66
395.507
395.357
395.212
395.216
395.231
395.254
395.281
395.313
400
400
400
400
400
399.882
399.752
399.611
399.462
399.305
399.144
398.979
398.811
398.642
398.472
398.303
398.133
397.965
397.798
397.633
397.469
397.306
397.143
396.98
396.816
396.654
396.492
396.331
396.171
396.013
395.857
395.704
395.553
395.407
395.265
395.271
395.286
395.31
395.338
395.371
400
400
400
400
400
399.882
399.752
399.61
399.46
399.303
399.141
398.976
398.808
398.639
398.469
398.3
398.131
397.963
397.796
397.632
397.469
397.306
397.144
396.981
396.818
396.656
396.495
396.335
396.176
396.019
395.864
395.711
395.562
395.416
395.275
395.282
395.298
395.321
395.35
395.384
400
400
400
400
400
399.882
399.751
399.61
399.46
399.303
399.141
398.976
398.808
398.639
398.47
398.301
398.132
397.964
397.798
397.634
397.472
397.31
397.147
396.985
396.822
396.661
396.5
396.34
396.181
396.024
395.869
395.717
395.568
395.423
395.282
395.289
395.305
395.329
395.357
395.391
400
400
400
400
400
399.882
399.751
399.61
399.459
399.302
399.14
398.975
398.807
398.638
398.469
398.3
398.131
397.964
397.799
397.634
397.472
397.309
397.147
396.985
396.822
396.661
396.5
396.34
396.182
396.025
395.87
395.718
395.569
395.424
395.283
395.289
395.306
395.329
395.358
395.392
400
400
400
400
400
399.882
399.752
399.61
399.46
399.303
399.141
398.976
398.809
398.641
398.472
398.303
398.135
397.968
397.803
397.639
397.476
397.313
397.151
396.989
396.827
396.665
396.504
396.345
396.187
396.03
395.875
395.723
395.574
395.429
395.288
395.294
395.31
395.334
395.363
395.396
400
400
400
400
400
399.882
399.752
399.611
399.461
399.304
399.142
398.977
398.81
398.642
398.474
398.306
398.138
397.972
397.806
397.641
397.477
397.314
397.152
396.99
396.828
396.667
396.506
396.347
396.188
396.032
395.877
395.725
395.576
395.43
395.289
395.295
395.311
395.335
395.364
395.397
400
400
400
400
400
399.883
399.753
399.612
399.462
399.305
399.144
398.98
398.813
398.646
398.478
398.311
398.144
397.977
397.811
397.645
397.481
397.317
397.155
396.993
396.831
396.67
396.51
396.351
396.193
396.036
395.882
395.73
395.58
395.434
395.292
395.299
395.315
395.338
395.367
395.4
400
400
400
400
400
399.883
399.753
399.612
399.463
399.306
399.145
398.981
398.815
398.648
398.481
398.314
398.148
397.981
397.814
397.648
397.483
397.319
397.156
396.994
396.833
396.672
396.513
396.354
396.196
396.039
395.885
395.733
395.583
395.437
395.295
395.301
395.317
395.34
395.369
395.402
400
400
400
400
400
399.883
399.754
399.613
399.464
399.308
399.147
398.983
398.817
398.651
398.484
398.318
398.152
397.985
397.818
397.652
397.487
397.322
397.159
396.998
396.837
396.677
396.518
396.359
396.202
396.045
395.891
395.739
395.589
395.442
395.299
395.305
395.321
395.344
395.373
395.406
400
400
400
400
400
399.884
399.754
399.614
399.465
399.31
399.149
398.985
398.819
398.652
398.486
398.32
398.153
397.986
397.82
397.653
397.488
397.324
397.161
397
396.84
396.68
396.522
396.363
396.206
396.05
395.895
395.743
395.593
395.446
395.302
395.308
395.324
395.347
395.376
395.409
400
400
400
400
400
399.884
399.755
399.615
399.466
399.311
399.15
398.986
398.82
398.653
398.486
398.32
398.154
397.987
397.82
397.654
397.488
397.324
397.161
397.001
396.841
396.683
396.524
396.366
396.209
396.053
395.899
395.747
395.597
395.449
395.305
395.311
395.326
395.35
395.378
395.411
400
400
400
400
400
399.885
399.756
399.617
399.468
399.313
399.152
398.988
398.821
398.654
398.487
398.32
398.154
397.987
397.82
397.653
397.488
397.324
397.161
397.001
396.841
396.683
396.525
396.368
396.211
396.055
395.901
395.748
395.598
395.45
395.304
395.31
395.325
395.349
395.377
395.41
400
400
400
400
400
399.885
399.757
399.618
399.469
399.313
399.153
398.988
398.822
398.654
398.486
398.319
398.152
397.985
397.818
397.651
397.486
397.322
397.159
396.998
396.839
396.681
396.523
396.366
396.209
396.054
395.899
395.746
395.596
395.447
395.301
395.307
395.323
395.346
395.374
395.407
400
400
400
400
400
399.885
399.758
399.619
399.47
399.315
399.154
398.989
398.822
398.654
398.486
398.318
398.151
397.983
397.816
397.65
397.485
397.32
397.157
396.997
396.838
396.679
396.521
396.364
396.207
396.051
395.897
395.744
395.593
395.444
395.298
395.303
395.319
395.342
395.37
395.404
400
400
400
400
400
399.886
399.759
399.62
399.471
399.316
399.155
398.99
398.823
398.654
398.486
398.317
398.149
397.982
397.814
397.648
397.483
397.319
397.156
396.995
396.836
396.677
396.518
396.361
396.204
396.048
395.893
395.74
395.588
395.439
395.292
395.297
395.313
395.336
395.365
395.398
400
400
400
400
400
399.886
399.759
399.62
399.472
399.317
399.156
398.991
398.824
398.655
398.486
398.317
398.148
397.981
397.814
397.649
397.484
397.32
397.158
396.997
396.837
396.677
396.518
396.36
396.203
396.046
395.891
395.738
395.586
395.436
395.289
395.294
395.31
395.333
395.362
395.395
400
400
400
400
400
399.887
399.76
399.621
399.473
399.318
399.156
398.991
398.824
398.655
398.485
398.316
398.147
397.98
397.814
397.648
397.484
397.321
397.159
396.998
396.837
396.677
396.517
396.359
396.201
396.044
395.888
395.734
395.582
395.432
395.284
395.289
395.305
395.328
395.357
395.39
400
400
400
400
400
399.887
399.76
399.622
399.474
399.319
399.158
398.993
398.825
398.656
398.486
398.316
398.147
397.98
397.814
397.65
397.487
397.324
397.162
397
396.838
396.678
396.518
396.359
396.201
396.043
395.887
395.733
395.58
395.43
395.282
395.287
395.303
395.326
395.355
395.388
400
400
400
400
400
399.887
399.761
399.622
399.474
399.319
399.158
398.993
398.825
398.656
398.486
398.316
398.146
397.979
397.813
397.649
397.486
397.323
397.161
396.998
396.837
396.676
396.515
396.356
396.197
396.039
395.883
395.729
395.576
395.425
395.277
395.282
395.298
395.321
395.35
395.383
400
400
400
400
400
399.887
399.761
399.623
399.475
399.32
399.16
398.995
398.827
398.658
398.488
398.318
398.149
397.981
397.816
397.652
397.489
397.326
397.163
397
396.838
396.677
396.516
396.356
396.197
396.04
395.883
395.728
395.575
395.424
395.276
395.281
395.297
395.32
395.349
395.382
400
400
400
400
400
399.887
399.761
399.623
399.476
399.321
399.16
398.995
398.827
398.658
398.488
398.317
398.148
397.981
397.815
397.651
397.487
397.324
397.16
396.997
396.835
396.673
396.512
396.352
396.192
396.034
395.878
395.722
395.569
395.418
395.269
395.275
395.29
395.313
395.342
395.375
400
400
400
400
400
399.888
399.762
399.624
399.477
399.322
399.162
398.997
398.83
398.66
398.49
398.32
398.151
397.983
397.817
397.652
397.488
397.324
397.16
396.996
396.833
396.67
396.509
396.348
396.188
396.029
395.871
395.715
395.561
395.409
395.259
395.264
395.279
395.302
395.33
395.363
400
400
400
400
400
399.888
399.762
399.624
399.476
399.321
399.16
398.995
398.827
398.657
398.485
398.314
398.143
397.974
397.806
397.639
397.473
397.306
397.14
396.974
396.808
396.643
396.479
396.315
396.153
395.991
395.831
395.672
395.515
395.359
395.207
395.21
395.225
395.247
395.274
395.306
400
400
400
400
400
399.888
399.762
399.623
399.475
399.318
399.155
398.987
398.816
398.642
398.467
398.291
398.116
397.941
397.767
397.594
397.42
397.247
397.073
396.899
396.726
396.553
396.381
396.209
396.038
395.867
395.698
395.53
395.364
395.199
395.037
395.038
395.051
395.072
395.098
395.129
400
400
400
400
400
399.885
399.754
399.609
399.453
399.287
399.113
398.932
398.747
398.558
398.366
398.172
397.977
397.782
397.588
397.392
397.196
397
396.803
396.605
396.407
396.209
396.011
395.813
395.615
395.419
395.222
395.027
394.834
394.642
394.452
394.452
394.466
394.492
394.523
394.558
400
400
400
400
400
399.866
399.709
399.533
399.34
399.132
398.913
398.684
398.448
398.206
397.959
397.71
397.458
397.206
396.953
396.699
396.443
396.186
395.927
395.668
395.408
395.147
394.886
394.625
394.365
394.105
393.846
393.588
393.331
393.078
392.829
392.901
392.995
393.099
393.205
393.304
400
400
400
400
400
399.893
399.775
399.645
399.504
399.353
399.19
399.019
398.838
398.65
398.455
398.253
398.045
397.833
397.617
397.397
397.174
396.947
396.718
396.485
396.249
396.01
395.77
395.528
395.285
395.042
394.799
394.557
394.317
394.081
393.85
393.846
393.856
393.877
393.908
393.934
400
400
400
400
400
399.907
399.807
399.7
399.586
399.464
399.337
399.204
399.065
398.922
398.775
398.623
398.469
398.311
398.151
397.99
397.826
397.66
397.492
397.322
397.15
396.977
396.802
396.627
396.451
396.275
396.099
395.924
395.75
395.578
395.409
395.372
395.341
395.318
395.299
395.283
400
400
400
400
400
399.909
399.812
399.709
399.6
399.486
399.367
399.243
399.116
398.985
398.851
398.715
398.577
398.437
398.296
398.154
398.011
397.867
397.722
397.574
397.426
397.277
397.127
396.977
396.827
396.677
396.528
396.38
396.234
396.089
395.947
395.918
395.894
395.875
395.86
395.848
400
400
400
400
400
399.909
399.812
399.709
399.601
399.487
399.37
399.248
399.123
398.995
398.865
398.732
398.599
398.464
398.328
398.191
398.054
397.917
397.778
397.638
397.497
397.355
397.213
397.071
396.929
396.788
396.648
396.509
396.371
396.236
396.103
396.079
396.059
396.043
396.03
396.023
400
400
400
400
400
399.909
399.812
399.709
399.601
399.488
399.37
399.249
399.125
398.997
398.868
398.737
398.604
398.47
398.336
398.201
398.067
397.931
397.794
397.656
397.517
397.378
397.239
397.1
396.961
396.822
396.685
396.549
396.414
396.282
396.152
396.13
396.111
396.097
396.086
396.08
400
400
400
400
400
399.909
399.812
399.708
399.6
399.486
399.369
399.247
399.122
398.995
398.866
398.734
398.602
398.468
398.334
398.2
398.066
397.931
397.794
397.657
397.519
397.38
397.241
397.103
396.964
396.827
396.69
396.555
396.421
396.29
396.161
396.14
396.122
396.108
396.097
396.093
400
400
400
400
400
399.909
399.812
399.708
399.6
399.486
399.369
399.247
399.123
398.995
398.866
398.735
398.603
398.469
398.336
398.202
398.068
397.933
397.797
397.66
397.522
397.383
397.245
397.106
396.968
396.831
396.695
396.56
396.426
396.295
396.167
396.146
396.128
396.114
396.104
396.099
400
400
400
400
400
399.909
399.812
399.708
399.6
399.486
399.368
399.247
399.122
398.995
398.865
398.734
398.602
398.469
398.335
398.202
398.067
397.932
397.796
397.659
397.521
397.383
397.244
397.106
396.968
396.831
396.694
396.559
396.426
396.295
396.167
396.145
396.128
396.114