/*--------------------------------*- C++ -*----------------------------------*\
| =========                 |                                                 |
| \\      /  F ield         | OpenFOAM: The Open Source CFD Toolbox           |
|  \\    /   O peration     | Version:  5.0                                   |
|   \\  /    A nd           | Web:      www.OpenFOAM.org                      |
|    \\/     M anipulation  |                                                 |
\*---------------------------------------------------------------------------*/
FoamFile
{
    version     2.0;
    format      ascii;
    class       volScalarField;
    location    "650/air";
    object      alphat;
}
// * * * * * * * * * * * * * * * * * * * * * * * * * * * * * * * * * * * * * //

dimensions      [1 -1 -1 0 0 0 0];

internalField   nonuniform List<scalar> 
243000
(
0.000217783
0.000216912
0.000209831
0.000200856
0.000190616
0.000179945
0.000169384
0.000159317
0.000149996
0.00014165
0.000134476
0.00012868
0.000124371
0.000121114
0.000118171
0.000115216
0.000112191
0.000109185
0.00010628
0.000103561
0.000100529
9.53443e-05
8.56376e-05
9.37345e-05
0.000111384
0.000121255
0.000133092
0.000145047
0.000157438
0.000173131
0.00097688
0.00102281
0.00102104
0.00100767
0.000986506
0.000960196
0.000930809
0.000899888
0.000868536
0.000837827
0.000808858
0.000782473
0.000758397
0.000734432
0.000709985
0.000685977
0.000662679
0.000640286
0.000618342
0.000596273
0.000571679
0.000537496
0.000487601
0.000512751
0.000605888
0.00065229
0.000693049
0.000732125
0.000773111
0.000817467
0.00106889
0.00112074
0.00112118
0.00110778
0.00108544
0.00105737
0.00102587
0.000992512
0.000958414
0.000924744
0.000892738
0.000863298
0.000835689
0.000807198
0.000777758
0.000749058
0.000721762
0.000696218
0.000671702
0.000646925
0.000619361
0.000584008
0.000531789
0.000534871
0.000645994
0.000709167
0.000759038
0.000806183
0.000857307
0.000905927
0.00112667
0.00117988
0.00118378
0.00117217
0.00115105
0.00112375
0.00109254
0.00105903
0.00102436
0.000989806
0.000956775
0.00092628
0.00089729
0.000866631
0.000834353
0.00080252
0.000772141
0.000743851
0.000716886
0.000689481
0.000658696
0.000621538
0.000568095
0.000546468
0.000664913
0.000744251
0.000804619
0.000859055
0.00091716
0.000967822
0.00116455
0.00121671
0.00122381
0.00121454
0.00119567
0.00117033
0.00114064
0.00110816
0.00107408
0.00103978
0.00100682
0.000976376
0.000947146
0.000915627
0.000881804
0.00084795
0.000815357
0.000784926
0.000755981
0.00072641
0.000692894
0.000654049
0.000599927
0.00055984
0.000667525
0.000765671
0.000834555
0.000896179
0.00096043
0.00101343
0.0011885
0.00123938
0.00124888
0.0012421
0.00122596
0.00120319
0.00117565
0.00114487
0.00111206
0.00107869
0.00104646
0.00101671
0.000987897
0.000956311
0.00092172
0.000886619
0.000852553
0.000820545
0.000790102
0.000758824
0.000723249
0.000683038
0.000628898
0.00057797
0.000654628
0.000777722
0.000855357
0.000921713
0.000990203
0.00104417
0.00120318
0.00125117
0.00126328
0.00125913
0.00124596
0.00122604
0.00120099
0.0011723
0.00114116
0.00110913
0.00107805
0.00104938
0.00102139
0.000990229
0.000955411
0.000919631
0.000884646
0.000851542
0.000820018
0.000787411
0.000750426
0.000709236
0.000655486
0.000598294
0.000637659
0.000782767
0.000869122
0.000939627
0.00101142
0.00106548
0.0012104
0.00125413
0.00126958
0.00126835
0.00125827
0.00124132
0.00121892
0.00119251
0.00116328
0.00113289
0.00110322
0.00107587
0.00104897
0.00101852
0.000983874
0.000947851
0.00091238
0.000878595
0.00084632
0.000812684
0.00077486
0.000733089
0.000679942
0.000619157
0.000625033
0.000783238
0.000877825
0.000952646
0.00102523
0.00107983
0.00121093
0.00125133
0.0012694
0.00127158
0.00126462
0.00125067
0.001231
0.00120696
0.0011798
0.00115122
0.00112315
0.00109726
0.0010716
0.00104204
0.00100787
0.000971955
0.000936346
0.00090225
0.000869495
0.00083506
0.000796881
0.000754884
0.000702456
0.000639682
0.000619395
0.000779994
0.000882625
0.00096055
0.0010329
0.00108822
0.00120685
0.00124454
0.00126502
0.00127044
0.00126666
0.00125544
0.00123827
0.00121665
0.00119166
0.00116502
0.00113869
0.00111435
0.00109
0.00106143
0.00102798
0.000992479
0.000957032
0.000922932
0.000889934
0.000854902
0.00081676
0.000774852
0.000723202
0.000660052
0.000622919
0.000772512
0.000884418
0.00096442
0.00103547
0.00109157
0.00119898
0.00123472
0.00125734
0.00126581
0.00126524
0.0012569
0.00124204
0.00122251
0.00119957
0.00117495
0.00115046
0.00112775
0.00110472
0.00107721
0.00104468
0.00100986
0.000974843
0.000940972
0.000907981
0.000872527
0.000834745
0.000793174
0.000742392
0.000679757
0.000633169
0.000759281
0.000883615
0.000964944
0.00103363
0.00109077
0.00118777
0.0012224
0.00124693
0.00125842
0.00126082
0.00125546
0.00124308
0.00122546
0.00120433
0.0011816
0.00115897
0.0011379
0.00111617
0.00108982
0.00105837
0.00102445
0.000990109
0.000956684
0.000923879
0.000888229
0.000851067
0.000810039
0.000760237
0.00069864
0.000645562
0.000745678
0.000879621
0.000961881
0.00102734
0.00108593
0.00117355
0.00120799
0.00123426
0.00124878
0.00125395
0.00125135
0.00124157
0.00122607
0.00120659
0.00118551
0.00116465
0.00114519
0.00112474
0.00109961
0.00106938
0.00103656
0.00100312
0.000970341
0.000937893
0.000902246
0.000865946
0.000825671
0.000776931
0.000716471
0.000658224
0.000732549
0.000873425
0.00095624
0.00101871
0.00107798
0.00115664
0.00119174
0.0012198
0.00123711
0.00124502
0.00124504
0.00123762
0.00122436
0.00120681
0.00118723
0.00116786
0.00114993
0.00113072
0.00110686
0.00107798
0.00104646
0.00101412
0.000982189
0.000950257
0.000914936
0.000879663
0.000840233
0.000792561
0.000733313
0.000671942
0.000720175
0.000865622
0.000949263
0.00101045
0.00106737
0.00113743
0.00117383
0.00120374
0.00122367
0.00123436
0.00123679
0.00123168
0.00122037
0.00120487
0.00118714
0.00116913
0.00115238
0.00113438
0.00111186
0.00108446
0.0010544
0.00102334
0.000992452
0.000961185
0.000926817
0.000892427
0.000853865
0.000807236
0.000749253
0.000685826
0.000709035
0.000856476
0.000940968
0.00100101
0.00105443
0.00111735
0.00115451
0.0011863
0.0012087
0.00122212
0.00122682
0.00122391
0.00121451
0.00120079
0.001185
0.00116867
0.00115309
0.00113603
0.00111488
0.00108907
0.00106062
0.00103102
0.00100134
0.00097089
0.000937734
0.000904307
0.00086668
0.000821107
0.000764406
0.00069977
0.000699767
0.000846097
0.000931321
0.000990142
0.00103966
0.00109799
0.00113491
0.00116778
0.00119245
0.00120839
0.0012153
0.00121448
0.00120696
0.00119502
0.00118098
0.00116628
0.00115206
0.00113615
0.00111619
0.00109207
0.00106536
0.00103736
0.00100906
0.000979566
0.000947769
0.000915414
0.000878806
0.000834331
0.000778909
0.000713827
0.000693133
0.000834596
0.000920526
0.000978647
0.00102683
0.00107903
0.00111626
0.001149
0.00117516
0.00119334
0.00120243
0.00120357
0.00119787
0.00118771
0.00117541
0.00116229
0.00114938
0.00113464
0.00111622
0.00109373
0.00106886
0.0010426
0.00101578
0.000987398
0.00095706
0.000925889
0.000890399
0.000847095
0.000792952
0.000728104
0.000689936
0.000822027
0.000908823
0.00096672
0.0010143
0.00106028
0.00109827
0.00113113
0.00115718
0.00117718
0.0011884
0.00119133
0.00118743
0.00117901
0.00116844
0.00115693
0.00114534
0.00113181
0.00111489
0.00109424
0.00107133
0.00104692
0.00102165
0.000994515
0.000965746
0.000935881
0.000901618
0.000859562
0.000806728
0.00074241
0.00069507
0.000806424
0.0008965
0.000954659
0.00100208
0.00104164
0.00108075
0.00111394
0.00113998
0.00116024
0.00117333
0.00117793
0.00117577
0.00116906
0.00116025
0.00115033
0.00114007
0.00112783
0.00111252
0.00109379
0.00107292
0.00105041
0.00102676
0.00100099
0.00097393
0.000945513
0.000912611
0.000871907
0.00082046
0.000756939
0.000702763
0.000790313
0.000883861
0.000942646
0.000990093
0.0010231
0.00106361
0.00109726
0.00112343
0.00114352
0.00115737
0.00116344
0.00116293
0.00115796
0.00115088
0.00114254
0.00113366
0.00112282
0.0011092
0.00109247
0.0010737
0.00105311
0.00103112
0.00100683
0.000981701
0.0009549
0.000923526
0.000884303
0.000834307
0.000771787
0.000712276
0.000775312
0.000871287
0.000930829
0.000978354
0.00100476
0.00104683
0.00108104
0.00110742
0.00112742
0.0011413
0.00114802
0.00114899
0.00114568
0.00114032
0.00113355
0.00112609
0.00111672
0.00110489
0.0010902
0.00107351
0.0010549
0.00103462
0.00101222
0.000989246
0.000964209
0.000934531
0.000897006
0.000848483
0.000787083
0.000724213
0.000762466
0.000859218
0.000919439
0.000966974
0.00098685
0.00103048
0.00106526
0.00109189
0.00111185
0.00112586
0.00113298
0.00113449
0.00113234
0.00112858
0.00112335
0.00111732
0.00110944
0.00109942
0.00108679
0.00107222
0.00105559
0.00103732
0.00101771
0.000996926
0.000973758
0.00094592
0.000910247
0.000863297
0.000803025
0.000737903
0.000753291
0.000848394
0.000908941
0.000956229
0.000969706
0.00101471
0.00104992
0.00107673
0.00109679
0.00111113
0.00111885
0.00112105
0.00111993
0.00111725
0.00111321
0.00110829
0.00110179
0.00109351
0.00108311
0.00107089
0.00105686
0.00104125
0.00102417
0.00100553
0.00098428
0.000958379
0.000924703
0.000879567
0.000820209
0.000753383
0.000749003
0.000839713
0.000900068
0.000946679
0.000953866
0.000999772
0.00103518
0.00106217
0.00108249
0.00109718
0.00110566
0.00110872
0.00110888
0.00110749
0.00110486
0.00110131
0.00109644
0.0010901
0.00108202
0.0010723
0.00106091
0.0010479
0.00103327
0.00101674
0.000997412
0.000973426
0.000941746
0.000898361
0.00083997
0.000771209
0.000751329
0.000834041
0.00089331
0.000938739
0.000940534
0.000986672
0.00102186
0.0010488
0.00106932
0.00108445
0.00109389
0.00109814
0.00109991
0.00110027
0.00109946
0.00109778
0.00109514
0.00109131
0.00108608
0.00107935
0.00107094
0.00106071
0.00104854
0.00103411
0.00101657
0.00099427
0.000964239
0.000922378
0.000864498
0.000793428
0.000760072
0.000833652
0.00089016
0.000933421
0.000932367
0.000977699
0.00101223
0.0010388
0.00105942
0.00107524
0.00108637
0.0010925
0.00109672
0.00109976
0.00110189
0.0011034
0.00110425
0.00110418
0.00110289
0.00109998
0.001095
0.00108769
0.00107784
0.00106511
0.00104877
0.00102743
0.000998422
0.000957429
0.000899549
0.000825499
0.000780823
0.000842133
0.000894465
0.000934387
0.000939994
0.000983037
0.00101644
0.00104322
0.00106495
0.00108249
0.00109693
0.00110699
0.00111582
0.00112376
0.00113119
0.00113848
0.00114529
0.00115096
0.00115476
0.00115595
0.00115405
0.00114871
0.00113988
0.0011274
0.00111071
0.00108879
0.00105947
0.00101882
0.000961439
0.00088539
0.000832661
0.000876172
0.000919896
0.000953368
0.00103079
0.00106908
0.00110065
0.00112785
0.00115177
0.00117185
0.00119089
0.00120744
0.00122329
0.00123761
0.00125196
0.00126717
0.0012811
0.00129231
0.00129963
0.0013026
0.00130103
0.00129492
0.00128473
0.00127065
0.00125191
0.00122836
0.00119901
0.00116111
0.00111077
0.00104574
0.000994467
0.00101302
0.00103906
0.00105904
0.00146915
0.00148944
0.00150681
0.00152238
0.00153622
0.00154254
0.00154966
0.00155884
0.00156877
0.00157526
0.0015849
0.00159918
0.00161049
0.00161719
0.00161885
0.00161747
0.00161231
0.00160477
0.00159563
0.00158604
0.00157236
0.00155761
0.00154313
0.00152746
0.00150878
0.0014852
0.00147019
0.0014755
0.00148428
0.00148969
0.000263692
0.000269787
0.000263852
0.00025422
0.00024235
0.000229383
0.000216082
0.000203012
0.000190523
0.000178889
0.000168346
0.000159186
0.000151521
0.000144535
0.000137231
0.00012941
0.000121076
0.000112456
0.000103668
9.51693e-05
8.8845e-05
8.60931e-05
8.52012e-05
9.96002e-05
0.000115585
0.000124626
0.000137665
0.000150149
0.000163864
0.000189125
0.00115286
0.00128113
0.00121681
0.00111429
0.00100553
0.000904157
0.000815024
0.000737143
0.000668172
0.000606548
0.000551626
0.000500704
0.000446668
0.00039229
0.000351027
0.000328491
0.000318525
0.000318786
0.000325136
0.000341875
0.000367658
0.000361524
0.000337531
0.000480034
0.000646025
0.00078139
0.000864748
0.000919048
0.000878084
0.000918408
0.00193741
0.0022268
0.00218956
0.00204867
0.00187653
0.0017049
0.001547
0.00140486
0.00127628
0.00116026
0.00105597
0.000958255
0.000852491
0.000747601
0.000670637
0.000629457
0.000611449
0.000611202
0.00062353
0.000648187
0.000672626
0.000621128
0.000536246
0.000651716
0.000901066
0.00120961
0.00145464
0.00160202
0.00156335
0.00161967
0.00258503
0.00295601
0.00296286
0.00281907
0.00262202
0.00241232
0.00221004
0.00202107
0.00184595
0.00168709
0.00154025
0.00139674
0.00124637
0.00110141
0.000996934
0.000939636
0.000912259
0.000908513
0.000922185
0.000948829
0.000959264
0.000850124
0.000688077
0.000730285
0.00102221
0.00145978
0.0018828
0.00215302
0.00215875
0.00223899
0.00310327
0.00351623
0.00356119
0.00342897
0.00322974
0.00300415
0.00277695
0.00255711
0.00234939
0.00215509
0.00197305
0.00179619
0.00161003
0.00143518
0.00131
0.00123932
0.0012024
0.0011942
0.00120847
0.00123605
0.0012298
0.00106866
0.000831807
0.000793956
0.00107877
0.00163187
0.00218092
0.00259168
0.00266856
0.00277553
0.00351043
0.00395781
0.0040219
0.00390688
0.00371837
0.00349112
0.00325266
0.00301441
0.00278327
0.00256299
0.00235647
0.00215371
0.00194171
0.00174683
0.0016062
0.00152417
0.00147797
0.00146482
0.00147948
0.00151031
0.00148568
0.00128056
0.00098114
0.000873547
0.00111444
0.00174677
0.00242049
0.00293147
0.00309444
0.00322786
0.00384024
0.00427213
0.00437111
0.00427864
0.00410771
0.00388887
0.00364802
0.00340064
0.00315573
0.00291709
0.00269313
0.00247338
0.00224465
0.00203768
0.0018856
0.00179344
0.00173871
0.00172007
0.00173471
0.00176999
0.00172664
0.00148518
0.00113701
0.000970661
0.00115114
0.00182044
0.00260427
0.00320358
0.00343403
0.00359635
0.00410076
0.00447937
0.0046063
0.00456268
0.00441476
0.00421101
0.00397369
0.00372391
0.00347192
0.00322378
0.00298595
0.0027579
0.00252268
0.00230874
0.00214856
0.00204729
0.00198465
0.00196041
0.00197454
0.0020145
0.00195216
0.00168084
0.00129567
0.00107503
0.00119992
0.00186222
0.00273841
0.00342198
0.00370565
0.00390232
0.00429307
0.00464083
0.00478007
0.00476815
0.00465365
0.00446849
0.00423863
0.00399132
0.00373798
0.00348815
0.00324401
0.00301001
0.00277638
0.00256144
0.00239529
0.00228589
0.00221608
0.00218637
0.00220008
0.00224388
0.00216191
0.00186587
0.00145259
0.00118147
0.00125331
0.00188517
0.002831
0.00357917
0.00393063
0.00415473
0.00445082
0.00476467
0.00490999
0.00492687
0.00484392
0.00467626
0.00445341
0.00420829
0.00395897
0.0037124
0.00347153
0.00323628
0.00300442
0.00279447
0.00262554
0.00250934
0.00243333
0.00239863
0.0024131
0.0024584
0.00235571
0.00203851
0.00160461
0.0012883
0.00131594
0.00189964
0.00289009
0.00368866
0.00410577
0.00436683
0.00457751
0.00485407
0.00500518
0.00504264
0.00498517
0.00485201
0.00463538
0.00439073
0.00414127
0.0039016
0.00366866
0.00344121
0.00321425
0.00300651
0.00283952
0.00271792
0.00263689
0.00259777
0.00261634
0.00265827
0.00253355
0.00219724
0.0017499
0.00139361
0.0013799
0.0019117
0.002923
0.00375902
0.00425398
0.00454812
0.00466539
0.00491248
0.00506752
0.00512198
0.00508768
0.00498164
0.00479267
0.00454767
0.00429911
0.00406102
0.00383916
0.00362382
0.00340749
0.00320547
0.00303656
0.00291201
0.00282739
0.00278483
0.00280892
0.00284336
0.00269549
0.00234287
0.00188531
0.00149788
0.00144114
0.00192441
0.00293691
0.00380953
0.0043781
0.00470495
0.00471073
0.00494232
0.00509938
0.00517001
0.00515797
0.00507619
0.00491218
0.00468558
0.00443783
0.00420202
0.00398619
0.0037864
0.00358301
0.00338831
0.00322022
0.0030927
0.00300583
0.00296131
0.00299077
0.00301357
0.00284187
0.00247682
0.00201125
0.00159862
0.0014987
0.00193339
0.00293718
0.0038361
0.00447451
0.00483766
0.00471515
0.0049413
0.0051038
0.00519098
0.00520038
0.00514015
0.00500173
0.00479058
0.00455955
0.00432853
0.00411801
0.00393078
0.00374215
0.00355594
0.00339007
0.00326153
0.00317342
0.00312939
0.00316264
0.00316885
0.00297483
0.00259955
0.00212901
0.00169517
0.00154915
0.00193587
0.00291171
0.00381852
0.00449834
0.00492205
0.00467844
0.00491046
0.0050841
0.00518865
0.00521868
0.00517811
0.00506577
0.00486818
0.00465497
0.00444175
0.00423818
0.00406143
0.00388692
0.00370977
0.00354752
0.0034204
0.0033315
0.00329186
0.00332522
0.00331084
0.00309687
0.00271207
0.0022357
0.00178789
0.00159512
0.00193214
0.00286576
0.00376605
0.00447275
0.00496025
0.0046044
0.00485426
0.00504427
0.00516681
0.00521657
0.00519516
0.00510691
0.00492798
0.00472674
0.00453504
0.00434934
0.00418293
0.00401972
0.00385169
0.00369436
0.00356943
0.00348133
0.00344993
0.00347813
0.00344159
0.00320989
0.00281597
0.00233353
0.00187437
0.00163898
0.00192247
0.00280412
0.00368628
0.0044072
0.00495116
0.00447767
0.00477663
0.00498898
0.00512977
0.00519811
0.00519548
0.00512882
0.00497247
0.00478599
0.0046124
0.00444593
0.00429658
0.00414304
0.0039837
0.00383242
0.00371052
0.00362454
0.00360098
0.00361897
0.00356113
0.00331458
0.00291255
0.00242499
0.00195464
0.00168288
0.00191252
0.0027316
0.00358716
0.00431076
0.00488846
0.00431354
0.00466232
0.004923
0.00508301
0.00516805
0.00518331
0.00513615
0.00500493
0.0048362
0.00467998
0.00453368
0.00440369
0.00425865
0.00410817
0.00396233
0.00384474
0.00376274
0.00374048
0.0037443
0.00366667
0.00340945
0.00300218
0.00251491
0.0020321
0.00173055
0.00190302
0.0026538
0.00347666
0.00419431
0.00479445
0.00412846
0.00452401
0.00482965
0.00503295
0.00513222
0.00516377
0.00513415
0.00502956
0.00488037
0.00474207
0.00462372
0.00450315
0.00436872
0.00422389
0.0040848
0.00397115
0.00389233
0.00386176
0.00384716
0.00375149
0.0034898
0.00308329
0.00259873
0.00210911
0.00177881
0.0019055
0.00257685
0.00336179
0.00406738
0.00468104
0.00393834
0.00437547
0.00471877
0.00496355
0.00509787
0.00514313
0.0051291
0.0050496
0.00492234
0.00481314
0.00470543
0.00459449
0.00446684
0.00433078
0.00419596
0.0040841
0.00400009
0.00395324
0.00391584
0.00380406
0.00354618
0.00315048
0.00267382
0.00218909
0.00183153
0.00192211
0.00250739
0.00324967
0.00393857
0.00455677
0.00375567
0.00422589
0.00460032
0.00488082
0.00505589
0.00513034
0.00512885
0.00506812
0.00497186
0.00487635
0.00477974
0.0046759
0.0045545
0.00441947
0.00428494
0.00416688
0.00406474
0.00399595
0.00393276
0.00380844
0.00356388
0.00319404
0.0027345
0.0022633
0.0018941
0.00194657
0.00245175
0.00314672
0.00381452
0.00442974
0.00359024
0.00408268
0.00448198
0.00479239
0.00500282
0.00511348
0.00513416
0.0050931
0.00501279
0.0049284
0.0048363
0.00473252
0.00460866
0.00446894
0.00432364
0.00418543
0.00405798
0.00396302
0.00387502
0.00374596
0.00352574
0.0031991
0.00277277
0.00232282
0.00195963
0.0019715
0.00241827
0.00306008
0.00369989
0.00430513
0.00344755
0.00395283
0.0043711
0.00470069
0.00492113
0.00504388
0.00511053
0.00509148
0.00502772
0.00494594
0.00484764
0.00473119
0.00459093
0.00443188
0.00426358
0.00409678
0.00394685
0.00382842
0.00372415
0.00360183
0.00341776
0.0031501
0.00277985
0.00236145
0.00201776
0.0020185
0.00241985
0.0030051
0.00360726
0.00418389
0.0033316
0.00383622
0.00423842
0.00455181
0.00478245
0.00494672
0.00502594
0.00500898
0.00494626
0.00485756
0.00474475
0.00460653
0.00444049
0.00425576
0.00405912
0.00387276
0.00371315
0.00358722
0.0034843
0.00338076
0.00324313
0.00304454
0.00275082
0.00237599
0.00206123
0.00207452
0.00243633
0.0029887
0.00356114
0.00410266
0.00321709
0.00367284
0.00405131
0.00436756
0.00460706
0.00476391
0.00482004
0.00478688
0.0047085
0.00460056
0.00446686
0.00430921
0.00412655
0.00393024
0.00372773
0.00354875
0.00340562
0.00329546
0.00320949
0.00313156
0.00304091
0.00290764
0.00269418
0.00237793
0.00208786
0.00209877
0.00243827
0.002942
0.00347017
0.00396282
0.00308987
0.00349631
0.0038354
0.00410306
0.0043023
0.00441567
0.00442951
0.00437644
0.00428606
0.00416964
0.00403324
0.00387902
0.00371496
0.00354753
0.00338473
0.00324874
0.00314488
0.00306765
0.00300425
0.00295019
0.00288978
0.00279999
0.00264713
0.00239779
0.00211755
0.00208666
0.00240672
0.00281459
0.00327809
0.00370762
0.00289263
0.00321663
0.00347829
0.00367265
0.00381055
0.00388689
0.00388307
0.00383752
0.0037694
0.00368463
0.00358768
0.00348208
0.00337676
0.00327572
0.00318252
0.00310638
0.00304785
0.00299988
0.00295548
0.00291266
0.00286227
0.0027899
0.00267046
0.00247349
0.00221134
0.00208347
0.00229155
0.00260759
0.00297288
0.00331804
0.00264391
0.00287886
0.00306089
0.00320469
0.00331568
0.00339096
0.00341585
0.00341452
0.00340055
0.00337338
0.00333585
0.00329311
0.00325069
0.0032094
0.00316462
0.00312135
0.0030847
0.00304796
0.00301204
0.002975
0.00293234
0.00287506
0.00278502
0.00263776
0.0024261
0.00224173
0.00229661
0.00249432
0.00272641
0.00295711
0.00270476
0.00284712
0.00296759
0.0030712
0.00315903
0.0032276
0.00326733
0.0032905
0.00330442
0.00330536
0.0032966
0.00327811
0.00325357
0.0032237
0.00319266
0.0031598
0.00312951
0.00310113
0.00307434
0.00304892
0.00302193
0.00298792
0.00293508
0.0028471
0.00272332
0.0026014
0.00260599
0.00270641
0.00282633
0.00294309
0.00302656
0.00308561
0.00313428
0.00317803
0.00321647
0.00324556
0.00326177
0.00327099
0.00327368
0.00326608
0.00325637
0.00324648
0.00322852
0.00320295
0.00317376
0.00314793
0.00312809
0.00311507
0.00310635
0.00310073
0.00309512
0.00308836
0.00307557
0.00304976
0.0030132
0.0029835
0.0029884
0.0030302
0.00307313
0.00310776
0.000295523
0.000305672
0.000299053
0.000288843
0.000276101
0.000261899
0.000247064
0.000232207
0.000217684
0.000203757
0.000190532
0.00017814
0.00016658
0.00015485
0.000142517
0.000130512
0.000118949
0.000109323
0.000100292
9.22526e-05
7.55142e-05
8.20876e-05
8.84572e-05
0.0001057
0.000123154
0.000132481
0.00014496
0.00015474
0.000174184
0.000202101
0.00143869
0.00164376
0.00161051
0.00148896
0.00134556
0.00120789
0.0010845
0.000975363
0.000877032
0.000786545
0.000700643
0.000616335
0.000523246
0.000442762
0.00040942
0.00042631
0.000462779
0.000509824
0.000543171
0.000540537
0.000505792
0.000430268
0.000369632
0.00057282
0.000809359
0.00100451
0.00114767
0.00117529
0.00102036
0.00096656
0.00243581
0.00286555
0.00290686
0.0027624
0.00255027
0.00232379
0.00210642
0.00190461
0.00171643
0.00153935
0.00136939
0.00119929
0.0010121
0.000855461
0.000797199
0.000830114
0.000891511
0.000964129
0.00101501
0.00103741
0.0010068
0.000846747
0.000702344
0.000958829
0.00134333
0.00170233
0.00196509
0.00202496
0.00185779
0.00179978
0.00326129
0.00380984
0.00391688
0.00378648
0.00355528
0.00328544
0.00301012
0.00274222
0.00248407
0.00223649
0.00199766
0.00175222
0.00148071
0.00126847
0.00119633
0.00123899
0.00131341
0.00139762
0.00146252
0.00150859
0.00146234
0.00123763
0.00103835
0.001255
0.00170602
0.00221829
0.00260652
0.0027341
0.00261138
0.00258073
0.00395943
0.00454924
0.00470738
0.00459928
0.00437124
0.0040835
0.00377416
0.00346102
0.00315091
0.00285
0.00255364
0.00224427
0.00191392
0.0016664
0.00158863
0.00163672
0.00171705
0.00180791
0.0018895
0.00195817
0.00188998
0.00162191
0.0013807
0.00154215
0.00199999
0.00260724
0.00311712
0.00333981
0.00328548
0.0032904
0.00453027
0.00515347
0.00533677
0.00525053
0.00503538
0.00474414
0.00441557
0.00407202
0.00372431
0.00338271
0.00303929
0.00268585
0.0023151
0.00205026
0.00197168
0.00202131
0.00210191
0.00219703
0.00230112
0.00237986
0.00229339
0.00199788
0.0017261
0.00183563
0.00227095
0.00294272
0.00352798
0.00385448
0.00388175
0.00392279
0.00502232
0.0056287
0.0058395
0.00577603
0.0055775
0.00529229
0.00495341
0.00458996
0.00421608
0.0038457
0.00346738
0.00308403
0.00269293
0.00242361
0.00234607
0.00239314
0.00246922
0.00256727
0.00269552
0.00277262
0.00267016
0.00235831
0.00206407
0.00212736
0.00252599
0.00322999
0.00389348
0.0042796
0.00439618
0.00447024
0.00543703
0.00596903
0.00620395
0.00619701
0.00602025
0.00574643
0.00540399
0.00502783
0.00463729
0.00424796
0.00384914
0.0034455
0.00305169
0.00278873
0.00271207
0.00275251
0.00282037
0.00292112
0.00306827
0.00313482
0.00301693
0.00269555
0.00238485
0.00240597
0.00275904
0.00347217
0.0042055
0.00466112
0.00482297
0.0049348
0.00576955
0.0062652
0.00650293
0.00652284
0.00638171
0.0061211
0.00578007
0.00539622
0.00499699
0.00459837
0.00419385
0.00378029
0.00339488
0.00314723
0.00306916
0.00309903
0.00315703
0.00326111
0.0034163
0.00346491
0.00333087
0.00300327
0.00267929
0.00266104
0.00296555
0.00367517
0.00446646
0.00498858
0.00520193
0.00535715
0.00607842
0.00652359
0.00675483
0.00679798
0.00668367
0.00643697
0.00609647
0.00570302
0.00530226
0.00490489
0.00450422
0.00409785
0.00372497
0.00349667
0.00341606
0.00343277
0.00348005
0.0035894
0.00373695
0.00376207
0.00361002
0.00327662
0.00293971
0.00288551
0.00314647
0.00384403
0.00468263
0.00526157
0.00554842
0.00574588
0.00635214
0.00674309
0.00696703
0.00702211
0.00692774
0.00671715
0.00637523
0.00597489
0.00556721
0.00517568
0.00478644
0.00439952
0.00404876
0.00383487
0.00375169
0.00375393
0.00379016
0.00390175
0.00402765
0.00402553
0.00385268
0.00351221
0.00316213
0.00307478
0.00330152
0.00398328
0.00485957
0.00550725
0.00586336
0.00610251
0.00657456
0.00692452
0.0071395
0.00720158
0.00712526
0.0069395
0.00662649
0.0062199
0.0058071
0.00541823
0.00504762
0.00468803
0.00436735
0.00416285
0.00407564
0.00406282
0.00408825
0.00419562
0.00428943
0.00425499
0.00405731
0.00370902
0.00334504
0.00322594
0.00342781
0.00409497
0.0049994
0.00571827
0.00614695
0.00642773
0.00674085
0.00706567
0.00727142
0.00734157
0.00728288
0.0071186
0.00683156
0.00644633
0.00602782
0.00564558
0.00529417
0.00496609
0.00467601
0.00448246
0.00438622
0.00435971
0.00437518
0.00446864
0.00452236
0.00445054
0.00422281
0.00386573
0.0034914
0.00333786
0.00352194
0.00418351
0.00511848
0.00589835
0.00639965
0.00672117
0.00685144
0.00716335
0.00736648
0.007447
0.00740587
0.00726032
0.00700057
0.0066361
0.00623528
0.00586163
0.00553088
0.00523503
0.00497426
0.00479127
0.00468466
0.00464488
0.00465135
0.00471791
0.00472465
0.00461203
0.00434906
0.00398215
0.0036022
0.00341138
0.00358096
0.00425237
0.00521251
0.00604927
0.00662018
0.00697879
0.00691055
0.00722195
0.00743008
0.00752307
0.00749938
0.00737114
0.00714166
0.00679224
0.00642097
0.00606922
0.00576082
0.00549592
0.00526191
0.00508769
0.00497096
0.00491749
0.00491079
0.00493741
0.00489372
0.00473882
0.00443953
0.00405776
0.00367377
0.00344827
0.00360727
0.00428521
0.00525929
0.00613942
0.00676792
0.00717348
0.00691797
0.00724777
0.00747023
0.00757578
0.00756906
0.00745909
0.00725753
0.00693287
0.00658925
0.006271
0.0059862
0.00574994
0.00553908
0.00537215
0.00524518
0.0051747
0.00514513
0.00511956
0.00502502
0.00482891
0.00449653
0.00409467
0.00370686
0.00345487
0.00360491
0.00426062
0.00524088
0.00616126
0.00684903
0.00730788
0.00687168
0.00723522
0.00749038
0.0076124
0.00762123
0.00753042
0.00735403
0.00706198
0.00674757
0.00646838
0.00620807
0.00599722
0.00580523
0.00563264
0.00550009
0.00540933
0.00534257
0.00525619
0.00511164
0.00487824
0.00452044
0.00409669
0.00369393
0.00343708
0.00357754
0.00419713
0.0051773
0.00613213
0.00687343
0.00738597
0.0067781
0.0071878
0.00748077
0.00763714
0.00766239
0.00759073
0.00743736
0.00718392
0.00690743
0.00665757
0.00642568
0.0062344
0.0060457
0.00587629
0.00572699
0.00560502
0.00548496
0.0053355
0.00514428
0.00488043
0.00450924
0.00406956
0.0036499
0.00339065
0.00351883
0.00410463
0.0050856
0.00606752
0.00684984
0.00741394
0.00664559
0.00710522
0.00743991
0.00763709
0.00769565
0.00764448
0.00751261
0.00730077
0.00706612
0.00684038
0.00663302
0.00644728
0.00626427
0.00608304
0.00590752
0.00573775
0.00555056
0.00534263
0.00511206
0.0048275
0.00445833
0.00401503
0.00358635
0.00332344
0.00343781
0.0039993
0.00497794
0.0059717
0.00678792
0.00740116
0.00648588
0.00699836
0.00737816
0.00761419
0.00770876
0.00769181
0.00758279
0.00741056
0.00721001
0.00701085
0.00681113
0.00662543
0.00643189
0.0062277
0.00600938
0.00577664
0.0055203
0.00526364
0.00500523
0.00471221
0.00436135
0.00393329
0.00350248
0.00324437
0.00336783
0.00392824
0.00485545
0.00585102
0.00669411
0.00735126
0.00631011
0.00687376
0.00729766
0.00757181
0.00769966
0.00771594
0.00765648
0.00751439
0.00731958
0.00713258
0.00693709
0.00673453
0.00651563
0.00626962
0.00599472
0.00569303
0.0053816
0.0050912
0.00481877
0.00453272
0.00421413
0.00382692
0.00340627
0.00315014
0.00329235
0.00388233
0.00471742
0.00569884
0.00656134
0.00726225
0.00612773
0.00673738
0.00719984
0.00750843
0.00765986
0.00768803
0.00766144
0.00753427
0.00735593
0.00717006
0.00696699
0.00673422
0.00646948
0.00616976
0.00583041
0.00547522
0.00513553
0.00483172
0.00456226
0.00429957
0.00402603
0.00369909
0.00330932
0.00304664
0.00319162
0.00383213
0.00462932
0.00554039
0.00638263
0.00710585
0.0059513
0.00658673
0.00703921
0.00731844
0.007482
0.00757145
0.00756132
0.00743308
0.00725426
0.00705603
0.00683242
0.00656859
0.00625699
0.00590985
0.00552182
0.00514372
0.00480841
0.00451683
0.00426787
0.00404203
0.00382073
0.00356277
0.00322871
0.00295115
0.00306548
0.00375075
0.00453437
0.00542773
0.00624843
0.00695235
0.00570641
0.00627773
0.00669402
0.00700589
0.00721618
0.00731467
0.00728535
0.00714454
0.00695522
0.00674078
0.00649772
0.00621223
0.00588021
0.00551472
0.00511989
0.00475965
0.00446136
0.00420531
0.00398935
0.00380635
0.00364169
0.00345002
0.00317939
0.00288941
0.0029412
0.00361643
0.00434152
0.00520205
0.00598728
0.00666266
0.00531095
0.00584637
0.00626827
0.00656778
0.00675666
0.00683402
0.00677414
0.00662484
0.00643452
0.00622106
0.00598217
0.00570663
0.00539516
0.00506266
0.00471848
0.00441406
0.00417165
0.0039611
0.00379145
0.00365922
0.00353884
0.00339424
0.00317771
0.00289106
0.00283779
0.00336692
0.00404253
0.00477337
0.00549462
0.00612636
0.00482509
0.00529352
0.00564338
0.00590068
0.00605254
0.00610611
0.00604355
0.0059166
0.00575999
0.00558557
0.00539127
0.00516908
0.00492358
0.00466894
0.00441113
0.00417768
0.00399548
0.00383856
0.00371472
0.00361423
0.00352055
0.00340713
0.00323344
0.00297642
0.00281209
0.00308777
0.00365344
0.00423375
0.00484018
0.00538703
0.00418103
0.00458037
0.00486433
0.00507469
0.00521215
0.00527966
0.00526215
0.00519806
0.00511188
0.00500942
0.00488882
0.00474545
0.00458479
0.00441626
0.00423227
0.00406898
0.00392833
0.00380677
0.00370853
0.00362832
0.00355533
0.0034701
0.00333955
0.0031346
0.00293159
0.00297843
0.00331916
0.00371965
0.00416462
0.00459405
0.00372309
0.00401501
0.00423782
0.00441987
0.00455996
0.00465569
0.00469444
0.00469649
0.00467787
0.00464039
0.0045833
0.00450302
0.00440187
0.0042786
0.0041439
0.00400998