/*--------------------------------*- C++ -*----------------------------------*\
| =========                 |                                                 |
| \\      /  F ield         | OpenFOAM: The Open Source CFD Toolbox           |
|  \\    /   O peration     | Version:  5.0                                   |
|   \\  /    A nd           | Web:      www.OpenFOAM.org                      |
|    \\/     M anipulation  |                                                 |
\*---------------------------------------------------------------------------*/
FoamFile
{
    version     2.0;
    format      ascii;
    class       volScalarField;
    location    "650/air";
    object      epsilon;
}
// * * * * * * * * * * * * * * * * * * * * * * * * * * * * * * * * * * * * * //

dimensions      [0 2 -3 0 0 0 0];

internalField   nonuniform List<scalar> 
243000
(
7.50946
8.62708
9.04531
9.15287
8.9752
8.60463
8.11283
7.55939
6.98967
6.44399
5.95659
5.55979
5.2673
5.02098
4.73537
4.38326
3.97595
3.54296
3.10913
2.69636
2.27271
1.75658
1.28852
1.41056
2.04398
2.31879
2.66713
2.98161
3.28706
3.76858
4.29217
4.91702
4.88122
4.68606
4.39222
4.04684
3.68393
3.32648
2.98863
2.68077
2.41042
2.18059
1.98363
1.7996
1.62499
1.4658
1.32182
1.19244
1.0737
0.961733
0.844831
0.695152
0.512852
0.643422
1.03205
1.28089
1.53568
1.80758
2.1277
2.51294
5.62476
6.46993
6.46232
6.22533
5.84966
5.40283
4.93002
4.46077
4.01319
3.60186
3.23803
2.9259
2.65144
2.38687
2.13437
1.90743
1.70745
1.53314
1.37673
1.22836
1.07501
0.89382
0.672576
0.726157
1.26173
1.65415
2.02867
2.42949
2.91064
3.42632
6.58807
7.55053
7.6056
7.3749
6.97549
6.48496
5.95419
5.4179
4.89847
4.4153
3.98448
3.6127
3.2807
2.95269
2.6341
2.34501
2.09011
1.86966
1.67364
1.48677
1.29322
1.07888
0.819
0.766337
1.38861
1.92302
2.42428
2.95196
3.57169
4.18814
7.27917
8.28117
8.40332
8.20377
7.81856
7.32521
6.77531
6.20705
5.64637
5.1176
4.64225
4.23044
3.85792
3.48194
3.10926
2.7659
2.46073
2.19653
1.96243
1.73814
1.50511
1.25819
0.963976
0.806128
1.42802
2.1044
2.71743
3.36448
4.11026
4.81347
7.74183
8.75261
8.93036
8.77519
8.4284
7.95988
7.41865
6.84466
6.26661
5.71356
5.21202
4.77632
4.37749
3.96707
3.55095
3.16173
2.81284
2.50904
2.23996
1.98063
1.71137
1.43381
1.11051
0.876403
1.36647
2.21735
2.93448
3.66982
4.51375
5.26954
8.03494
9.00897
9.24366
9.14174
8.84834
8.42264
7.90923
7.34867
6.77157
6.21114
5.69836
5.25175
4.83816
4.40466
3.95502
3.52823
3.1424
2.80394
2.50367
2.21214
1.91119
1.60581
1.25794
0.964877
1.2664
2.27156
3.08664
3.89475
4.81868
5.60331
8.18319
9.07784
9.385
9.34545
9.11439
8.74245
8.26958
7.73592
7.17359
6.61909
6.10706
5.65974
5.241
4.79352
4.3195
3.86318
3.44713
3.07942
2.75181
2.43103
2.1035
1.77377
1.40496
1.06464
1.18668
2.28384
3.18426
4.04899
5.02606
5.83688
8.19689
9.02068
9.38467
9.41948
9.25461
8.94252
8.51878
8.02133
7.48395
6.94585
6.44422
6.00429
5.58789
5.13376
4.64363
4.16553
3.72576
3.33452
2.98345
2.63631
2.28746
1.93709
1.55029
1.17112
1.14444
2.26784
3.24011
4.14933
5.14638
5.97794
8.11639
8.87754
9.29214
9.3971
9.30136
9.04659
8.67175
8.21678
7.71254
7.19898
6.7156
6.28948
5.88106
5.42614
4.92752
4.43508
3.97797
3.56868
3.19806
2.82762
2.46251
2.09531
1.69299
1.28367
1.13388
2.22756
3.26326
4.20174
5.19093
6.03668
7.96077
8.67106
9.12842
9.29773
9.27294
9.07983
8.75241
8.33725
7.86778
7.38523
6.92625
6.51928
6.12271
5.67222
5.17191
4.67217
4.20397
3.78153
3.39569
3.00522
2.62863
2.24803
1.83289
1.40061
1.1695
2.14289
3.26049
4.21344
5.17126
6.02812
7.74153
8.41666
8.90812
9.13882
9.17872
9.05094
8.77561
8.39867
7.96255
7.51156
7.0815
6.69707
6.3153
5.87398
5.37806
4.8776
4.4043
3.97361
3.57623
3.17004
2.78617
2.39541
1.96995
1.52034
1.22626
2.03805
3.22433
4.18056
5.0845
5.95312
7.46914
8.12513
8.64343
8.93351
9.03223
8.96441
8.74543
8.41228
8.00809
7.58689
7.18636
6.82663
6.4618
6.03373
5.54769
5.05257
4.57992
4.14572
3.74048
3.32358
2.93598
2.53795
2.10443
1.64095
1.29417
1.93292
3.16257
4.11079
4.95146
5.82775
7.15345
7.80465
8.34639
8.68902
8.84332
8.83183
8.6639
8.37821
8.0132
7.62048
7.24621
6.91172
6.56541
6.15404
5.68283
5.19869
4.73205
4.29902
3.88942
3.46939
3.07912
2.67576
2.23553
1.76078
1.36957
1.83393
3.08267
4.02131
4.82447
5.66035
6.80504
7.46057
8.02432
8.41273
8.62041
8.65977
8.54114
8.2977
7.97531
7.61921
7.27009
6.95614
6.62939
6.23794
5.78604
5.31798
4.86228
4.43487
4.02429
3.60702
3.21574
2.80896
2.36339
1.87955
1.45153
1.74324
2.98932
3.91683
4.68746
5.4592
6.44915
7.10017
7.68376
8.11103
8.36928
8.45412
8.38201
8.17964
7.8956
7.57875
7.26178
6.96904
6.65841
6.28909
5.86032
5.41283
4.97251
4.55491
4.14671
3.73588
3.34608
2.93796
2.4885
1.99734
1.53822
1.66468
2.88524
3.79875
4.53601
5.23423
6.1194
6.74333
7.33196
7.79125
8.09322
8.2202
8.1913
8.02885
7.7828
7.5024
7.21779
6.95069
6.6608
6.3116
5.9092
5.48603
5.06505
4.66082
4.25834
3.85687
3.47102
3.06354
2.61169
2.11445
1.62916
1.60219
2.77256
3.66982
4.37818
5.03211
5.80877
6.41606
6.98368
7.45972
7.79731
7.96334
7.97386
7.84969
7.64152
7.39704
7.1445
6.90267
6.6346
6.31255
5.93678
5.5407
5.14248
4.75438
4.36093
3.97133
3.59179
3.18699
2.7343
2.23195
1.72628
1.55961
2.65332
3.53323
4.21824
4.84479
5.51278
6.1112
6.663
7.12453
7.48726
7.68925
7.73435
7.647
7.47557
7.26702
7.04674
6.83054
6.58557
6.29077
5.94574
5.57974
5.20685
4.83713
4.45582
4.08069
3.70989
3.30977
2.85778
2.35132
1.82813
1.55448
2.5228
3.39318
4.06031
4.66756
5.22916
5.82433
6.36434
6.81157
7.17041
7.40199
7.47738
7.4246
7.2887
7.11616
6.92741
6.73727
6.51717
6.2515
5.93918
5.60526
5.2594
4.90996
4.54387
4.18614
3.8266
3.43333
2.98376
2.47447
1.93635
1.5877
2.38177
3.25305
3.9069
4.49901
4.95743
5.55287
6.0836
6.51926
6.86517
7.10543
7.20583
7.18478
7.08371
6.94594
6.78841
6.62485
6.43133
6.19657
5.91845
5.61791
5.30012
4.9725
4.62546
4.28877
3.94318
3.55934
3.11406
2.60302
2.05197
1.64182
2.24889
3.11689
3.76
4.33852
4.6985
5.29568
5.81863
6.24488
6.57992
6.81481
6.92375
6.93042
6.86163
6.75724
6.63019
6.4938
6.32782
6.12538
5.88226
5.61514
5.32698
5.02336
4.70451
4.39082
4.06148
3.68977
3.25168
2.73927
2.17631
1.71414
2.13459
2.98926
3.62195
4.18692
4.45446
5.05298
5.56849
5.98638
6.31166
6.54334
6.65673
6.67391
6.62615
6.55193
6.45388
6.34428
6.20592
6.03587
5.82807
5.59539
5.3379
5.06651
4.78495
4.4963
4.18545
3.8284
3.39978
2.88688
2.31169
1.80563
2.04923
2.87685
3.49748
4.04702
4.22895
4.82602
5.33234
5.74107
6.05943
6.29122
6.41235
6.44203
6.41477
6.36105
6.2857
6.1968
6.08389
5.94447
5.77431
5.57974
5.36242
5.1284
4.87994
4.61633
4.32504
3.98421
3.56683
3.0551
2.46405
1.91656
2.00092
2.78757
3.39404
3.92511
4.02728
4.61728
5.11172
5.51198
5.82606
6.05861
6.18982
6.23424
6.23024
6.20016
6.14999
6.08542
6.00099
5.89429
5.76213
5.60684
5.42934
5.23174
5.01469
4.77556
4.50336
4.17787
3.77087
3.25794
2.64781
2.0522
2.00307
2.72819
3.31573
3.82507
3.86229
4.43898
4.91745
5.30695
5.61662
5.85124
5.99565
6.05955
6.0833
6.08334
6.0644
6.03204
5.98481
5.9194
5.83286
5.72371
5.59012
5.4306
5.24452
5.02808
4.77138
4.4557
4.05151
3.52997
2.88848
2.2313
2.06029
2.71882
3.27706
3.7576
3.76248
4.31864
4.7793
5.15626
5.46216
5.70392
5.87344
5.96814
6.03277
6.07807
6.10877
6.12988
6.14099
6.13744
6.1144
6.06483
5.98172
5.86139
5.70164
5.49856
5.24377
4.92119
4.50306
3.95304
3.25765
2.51093
2.21751
2.79551
3.32001
3.76563
3.85071
4.38556
4.83555
5.21906
5.54518
5.81764
6.04599
6.20877
6.35432
6.48693
6.61321
6.73928
6.85877
6.95951
7.02739
7.04775
7.01128
6.91221
6.75104
6.52725
6.23506
5.86365
5.38862
4.77305
3.98749
3.10343
2.67132
3.13396
3.60233
3.99261
5.05487
5.62241
6.12411
6.58126
7.0024
7.36952
7.73099
8.05414
8.37191
8.66631
8.97207
9.30329
9.61245
9.86553
10.0323
10.0991
10.0591
9.91432
9.67773
9.35708
8.94043
8.43542
7.83146
7.09425
6.19016
5.15576
4.51867
4.80676
5.16816
5.45491
14.5372
15.1335
15.6595
16.144
16.5785
16.7792
17.0194
17.3284
17.6552
17.8726
18.2179
18.7195
19.1144
19.3491
19.4029
19.3473
19.1556
18.8819
18.5573
18.2192
17.7361
17.2384
16.7582
16.2461
15.6474
14.9345
14.5559
14.7497
14.9915
15.1403
13.3475
16.6063
17.993
18.5601
18.4405
17.8098
16.8196
15.6105
14.2873
12.9373
11.6411
10.48
9.47761
8.48351
7.3666
6.1661
4.95815
3.83842
2.85637
2.07176
1.56191
1.38381
1.22169
1.67973
2.29467
2.52819
2.97378
3.3056
3.71211
4.90955
8.37788
9.62533
10.4061
10.7811
10.7877
10.4859
9.9438
9.24149
8.44832
7.6209
6.79819
6.02748
5.32744
4.63168
3.94233
3.31337
2.75655
2.28303
1.85545
1.47018
1.12208
0.82115
0.697564
0.824213
1.16682
1.55174
2.00211
2.43552
2.91239
3.73297
7.49802
8.38969
8.94306
9.22236
9.25649
9.06381
8.67802
8.14691
7.52047
6.84444
6.15782
5.49897
4.88214
4.24177
3.60482
3.0433
2.57152
2.19026
1.85291
1.55042
1.24295
0.911685
0.695036
0.758313
1.16372
1.62323
2.10755
2.58521
3.08487
3.81156
7.13605
7.85902
8.304
8.53912
8.59532
8.47433
8.18818
7.766
7.24385
6.65613
6.057
5.48751
4.91978
4.29789
3.66518
3.10841
2.65062
2.29175
1.98901
1.7214
1.42627
1.06301
0.766087
0.741503
1.20367
1.73215
2.26917
2.79095
3.3204
3.98067
6.90176
7.49016
7.8668
8.08312
8.16392
8.10341
7.89576
7.5579
7.1141
6.6075
6.083
5.57087
5.04467
4.43773
3.8026
3.23937
2.78108
2.42956
2.14814
1.90665
1.61681
1.2294
0.864064
0.752578
1.21305
1.82066
2.41433
2.9775
3.52634
4.14853
6.69278
7.16537
7.49238
7.70367
7.81054
7.80341
7.66201
7.39441
7.02145
6.58408
6.11858
5.66051
5.16924
4.57514
3.93907
3.37064
2.91158
2.56635
2.30473
2.08655
1.80139
1.39986
0.982151
0.797291
1.17616
1.8834
2.53115
3.12858
3.68871
4.28745
6.48014
6.85045
7.14278
7.35737
7.49143
7.52971
7.44608
7.23885
6.92548
6.5501
6.13958
5.72797
5.26769
4.68685
4.05401
3.48508
3.02868
2.69214
2.45099
2.25474
1.97677
1.56973
1.116
0.870905
1.12014
1.92236
2.62189
3.24202
3.80354
4.38624
6.24875
6.53639
6.80699
7.03098
7.19166
7.26813
7.23431
7.07922
6.8188
6.49497
6.14112
5.76814
5.33265
4.76657
4.14217
3.57844
3.12916
2.8047
2.58468
2.40977
2.14231
1.73649
1.2605
0.96099
1.09537
1.93807
2.69164
3.32175
3.87309
4.44203
5.99234
6.22618
6.48513
6.72052
6.90574
7.01416
7.02148
6.91164
6.69779
6.4172
6.11195
5.78141
5.36593
4.81378
4.2036
3.65084
3.21329
2.90431
2.70594
2.55177
2.29826
1.89887
1.41166
1.05772
1.1094
1.94124
2.74422
3.37171
3.90358
4.45794
5.72292
5.92504
6.1794
6.42578
6.63211
6.76708
6.80483
6.73619
6.56196
6.32125
6.05336
5.76302
5.3733
4.83394
4.24091
3.70415
3.28252
2.99215
2.81585
2.68162
2.44528
2.05696
1.56633
1.16296
1.14204
1.94045
2.78136
3.39788
3.90197
4.43001
5.45009
5.63671
5.89107
6.1468
6.37024
6.52713
6.59184
6.55409
6.41308
6.20764
5.97328
5.71102
5.34723
4.83275
4.25681
3.74085
3.33887
3.0695
2.91611
2.80078
2.58445
2.21132
1.72228
1.27911
1.19035
1.93256
2.80431
3.40348
3.85913
4.35706
5.18052
5.36353
5.62028
5.88356
6.12016
6.29386
6.3798
6.36714
6.25372
6.07826
5.87407
5.63521
5.29191
4.80227
4.25603
3.76387
3.38471
3.13801
3.00774
2.91145
2.7175
2.36291
1.87912
1.40602
1.25238
1.91465
2.81425
3.38395
3.78654
4.24928
4.91928
5.10668
5.36674
5.63571
5.88183
6.06884
6.16989
6.17732
6.08657
5.93637
5.75835
5.53954
5.2157
4.75311
4.23824
3.77596
3.42264
3.19987
3.09296
3.01658
2.84697
2.51311
2.03732
1.54216
1.32537
1.88892
2.81145
3.34703
3.69534
4.11754
4.67102
4.867
5.13005
5.40268
5.65502
5.85089
5.96331
5.98587
5.91431
5.78543
5.62953
5.42878
5.1238
4.69026
4.20978
3.78018
3.45571
3.25818
3.17501
3.11989
2.97592
2.66429
2.19786
1.68663
1.40853
1.85941
2.79256
3.29841
3.60153
3.97136
4.44255
4.64628
4.91018
5.1839
5.43942
5.64052
5.76106
5.79484
5.73963
5.62938
5.49232
5.30799
5.02212
4.61936
4.1756
3.78035
3.48753
3.31733
3.25818
3.22578
3.10824
2.81995
2.36281
1.83934
1.50274
1.83892
2.76223
3.24114
3.50734
3.81975
4.24745
4.44867
4.70796
4.9792
5.23488
5.43823
5.56436
5.60686
5.56589
5.47253
5.35233
5.18332
4.91747
4.54702
4.14178
3.78369
3.52333
3.38302
3.34817
3.33965
3.24917
2.98502
2.53626
2.00108
1.6051
1.83648
2.72399
3.17713
3.41306
3.67245
4.09052
4.28266
4.52624
4.78992
5.04233
5.24537
5.37529
5.42515
5.39755
5.32016
5.21611
5.06241
4.81813
4.48163
4.11625
3.79739
3.57058
3.46177
3.45323
3.46876
3.40612
3.16677
2.72486
2.17528
1.71926
1.84897
2.67887
3.10831
3.32128
3.54154
3.96148
4.14964
4.37231
4.61974
4.86503
5.0655
5.19799
5.25473
5.24068
5.17937
5.09201
4.95505
4.73477
4.43364
4.11065
3.83209
3.64138
3.56461
3.58379
3.62409
3.58997
3.37571
2.93874
2.36834
1.84841
1.8707
2.62876
3.03719
3.23461
3.4276
3.85177
4.04264
4.25129
4.47621
4.70894
4.90489
5.03946
5.10356
5.10425
5.06052
4.99148
4.87468
4.68092
4.42036
4.14001
3.90554
3.75231
3.70936
3.75703
3.82277
3.81722
3.62704
3.19352
2.59221
2.00249
1.90938
2.5765
2.96674
3.15536
3.32997
3.75507
3.95575
4.15796
4.36781
4.58471
4.77349
4.91047
4.98383
5.00117
4.9792
4.93183
4.8411
4.68357
4.46264
4.22987
4.04255
3.92985
3.92498
4.0012
4.09257
4.11373
3.94578
3.51182
2.86559
2.19245
1.96768
2.52566
2.90072
3.08569
3.24876
3.67105
3.88579
4.08888
4.29402
4.50328
4.68753
4.82882
4.9146
4.95331
4.95958
4.94243
4.88532
4.76956
4.60046
4.42616
4.29167
4.22783
4.26088
4.365
4.48062
4.52405
4.37272
3.9291
3.21743
2.43407
2.0532
2.48261
2.84353
3.02886
3.1854
3.60025
3.83239
4.04526
4.25545
4.46575
4.65617
4.81269
4.92717
4.99919
5.04547
5.07257
5.06395
5.00816
4.90917
4.81007
4.74184
4.73611
4.80796
4.93965
5.07429
5.12991
4.97905
4.5039
3.69609
2.75554
2.18589
2.46401
2.80556
2.99464
3.14666
3.54482
3.80022
4.03123
4.25981
4.49774
4.72719
4.92004
5.07531
5.20122
5.3141
5.4147
5.48761
5.52343
5.52413
5.53005
5.55893
5.62884
5.75008
5.90733
6.04765
6.09031
5.90042
5.34541
4.38241
3.20368
2.3768
2.49063
2.81213
3.00432
3.1516
3.51488
3.80422
4.08899
4.37235
4.66502
4.95554
5.2182
5.45318
5.67675
5.9033
6.13219
6.34927
6.54362
6.71487
6.90293
7.09465
7.2855
7.47835
7.65552
7.76641
7.72663
7.40457
6.66506
5.43216
3.87225
2.65685
2.58806
2.87841
3.07197
3.21611
3.56462
3.93544
4.30311
4.67794
5.07103
5.47813
5.88161
6.27714
6.69232
7.13342
7.59979
8.08536
8.58414
9.08441
9.6282
10.1358
10.5506
10.8561
11.0233
11.003
10.7038
10.0335
8.88492
7.16602
4.98537
3.14684
2.84685
3.09463
3.29173
3.4363
3.86113
4.37284
4.89263
5.43966
6.03952
6.68824
7.39243
8.13531
8.95599
9.83319
10.7673
11.7494
12.8638
14.0296
15.2893
16.411
17.2177
17.6506
17.6815
17.2507
16.3117
14.8469
12.8344
10.2434
7.08757
4.18689
3.5263
3.71437
3.90236
4.03836
4.95618
5.73953
6.58911
7.52044
8.58979
9.7834
11.1358
12.5559
14.1629
15.9073
17.7716
19.7992
22.0426
24.4195
26.883
28.9157
30.1474
30.4949
29.9513
28.5394
26.3193
23.4168
19.9372
15.9424
11.3695
6.8813
5.5167
5.56394
5.69443
5.77174
8.88994
10.285
11.91
13.7145
15.7438
17.9632
20.5112
23.1826
26.1622
29.3386
32.6601
36.2147
39.9558
43.6752
46.9924
49.1269
49.7131
48.8438
46.7562
43.739
40.0216
35.7831
31.0745
25.8857
20.0556
14.1439
11.6373
11.385
11.3491
11.1686
21.7691
24.3419
27.2444
30.3539
33.6754
37.1357
40.8905
44.7429
48.8108
52.9575
57.0597
60.8908
64.1197
66.4241
66.7118
64.8569
61.8743
58.2244
54.2988
50.4065
46.7656
43.4321
40.2181
36.8282
33.0043
28.8117
26.5516
26.539
26.6551
26.329
41.5356
45.4934
49.0542
52.596
55.934
58.9579
61.8695
64.4666
66.6302
68.4639
69.8653
70.0888
68.7448
66.1418
62.0612
57.3668
52.7898
48.4638
44.6813
41.5609
39.163
37.5619
36.6211
36.0692
35.7648
36.2755
37.8338
39.3281
40.7284
42.6804
18.8099
24.1698
26.2081
27.2281
27.2671
26.5018
25.1302
23.3444
21.2904
19.0947
16.8491
14.6521
12.5493
10.3855
8.21815
6.3181
4.71811
3.5756
2.63632
1.97777
1.54143
1.36405
1.33593
2.03362
2.81993
3.08467
3.52798
3.79807
4.59251
6.02271
10.6285
12.1221
12.9752
13.5094
13.6727
13.4709
12.9463
12.1721
11.2232
10.164
9.04037
7.88522
6.72579
5.56407
4.56746
3.81611
3.20698
2.7222
2.17976
1.61407
0.975769
0.686745
0.709173
0.948893
1.34413
1.78487
2.39321
3.0048
3.70747
4.69465
9.54826
10.3911
10.9015
11.1911
11.2723
11.1406
10.7943
10.2585
9.57276
8.77855
7.91056
6.99921
6.03506
5.05179
4.2285
3.63067
3.15052
2.7385
2.25275
1.65668
1.10574
0.773867
0.687341
0.870555
1.28994
1.8191
2.46533
3.19683
3.96167
4.84956
9.11803
9.69106
10.0599
10.2571
10.316
10.2317
9.98538
9.58044
9.03798
8.38463
7.64381
6.8601
6.00783
5.08399
4.29923
3.72106
3.25695
2.85138
2.37881
1.79416
1.3167
0.956336
0.780502
0.912849
1.3495
1.93424
2.6149
3.42395
4.22436
5.05384
8.79663
9.19561
9.48377
9.64966
9.71946
9.68658
9.52008
9.21162
8.77228
8.2174
7.57988
6.89758
6.10166
5.21488
4.4414
3.85336
3.38129
2.97205
2.51567
1.98054
1.53924
1.15978
0.917218
0.984795
1.41927
2.05079
2.76154
3.61649
4.42644
5.21287
8.46623
8.73539
8.97617
9.14292
9.24211
9.26288
9.16705
8.93784
8.58111
8.10899
7.56364
6.95118
6.20304
5.34595
4.57798
3.97634
3.49467
3.08664
2.66175
2.17798
1.75679
1.36491
1.07458
1.08335
1.48411
2.15475
2.88892
3.76399
4.56379
5.31252
8.07498
8.26859
8.48988
8.67575
8.81407
8.88568
8.85416
8.69312
8.40603
8.00462
7.53991
6.98846
6.27865
5.45215
4.69133
4.07939
3.59234
3.19305
2.80867
2.37232
1.96392
1.56357
1.24076
1.19864
1.54734
2.24378
2.99523
3.86712
4.64343
5.35555
7.6441
7.79567
8.01707
8.23178
8.41157
8.5305
8.55476
8.45365
8.22643
7.88874
7.49064
7.00139
6.32588
5.52921
4.77895
4.16202
3.67545
3.29185
2.94956
2.55608
2.15923
1.75202
1.40661
1.31641
1.6109
2.31741
3.08011
3.93031
4.67493
5.3506
7.19011
7.32888
7.56199
7.80751
8.02691
8.18874
8.25893
8.21064
8.03546
7.75508
7.41054
6.98206
6.34579
5.57748
4.84258
4.22654
3.74678
3.3856
3.08287
2.72694
2.3436
1.92944
1.56591
1.42904
1.6714
2.37475
3.14321
3.95811
4.66304
5.28617
6.73525
6.87883
7.12935
7.4037
7.65836
7.85709
7.96491
7.96146
7.83161
7.60209
7.30782
6.92467
6.34238
5.60348
4.8856
4.2761
3.80927
3.47805
3.20921
2.88768
2.51983
2.09867
1.71576
1.5345
1.72635
2.41537
3.18443
3.95197
4.60108
5.17539
6.2969
6.45335
6.72234
7.02166
7.30604
7.53554
7.67422
7.70608
7.61607
7.43135
7.1842
6.84085
6.31048
5.61137
4.91118
4.31409
3.86576
3.56815
3.32997
3.04144
2.68914
2.26211
1.85702
1.633
1.77604
2.43999
3.2053
3.91244
4.50173
5.02838
5.88411
6.05748
6.34301
6.66265
6.9706
7.22444
7.38781
7.44672
7.3914
7.24624
7.04285
6.73785
6.25363
5.60053
4.92232
4.34434
3.92017
3.65803
3.44883
3.19206
2.85384
2.42434
1.99521
1.72559
1.82103
2.45065
3.20948
3.85844
4.37826
4.8562
5.50172
5.69411
5.99277
6.32766
6.65276
6.92434
7.10647
7.18617
7.16079
7.05102
6.88809
6.62114
6.18243
5.57127
4.92499
4.3719
3.97837
3.75177
3.57095
3.34473
3.02229
2.59001
2.13584
1.81613
1.86242
2.4473
3.19104
3.79098
4.24127
4.67312
5.15407
5.36479
5.67248
6.01711
6.35295
6.63594
6.8314
6.92725
6.92793
6.85059
6.72531
6.49693
6.10159
5.53162
4.92373
4.40324
4.04951
3.85509
3.7032
3.50651
3.20101
2.76492
2.28403
1.91295
1.90221
2.42971
3.15623
3.71299
4.10045
4.48719
4.84759
5.07182
5.38298
5.73128
6.07158
6.36029
6.56466
6.67377
6.69677
6.6508
6.56152
6.37185
6.0177
5.4908
4.9272
4.44757
4.14062
3.97637
3.85437
3.68679
3.39895
2.95871
2.44704
2.02167
1.94143
2.40407
3.10929
3.62739
3.96569
4.30413
4.58877
4.81997
5.1261
5.47125
5.80996
6.09952
6.30956
6.43041
6.47368
6.45905
6.40533
6.25406
5.94009
5.45886
4.94701
4.51908
4.26254
4.12859
4.03755
3.89888
3.62899
3.18392
2.63301
2.14684
1.98821
2.37639
3.05473
3.53748
3.8359
4.12968
4.37069
4.60832
4.90589
5.24005
5.57162
5.85815
6.07196
6.2044
6.26816
6.28507
6.26792
6.15518
5.88243
5.46196
5.00507
4.64111
4.43365
4.33197
4.27221
4.16227
3.90987
3.45799
2.85849
2.29817
2.04423
2.35216
2.99753
3.44802
3.71411
3.97135
4.18871
4.4323
4.72294
5.0442
5.36336
5.64417
5.86134
6.00688
6.0936
6.14353
6.16462
6.09318
5.87596
5.51156
5.1293
4.8416
4.68184
4.61578
4.58813
4.50634
4.26952
3.80585
3.14828
2.49098
2.12617
2.34852
2.94391
3.36348
3.6034
3.83345
4.03839
4.29102
4.57802
4.89025
5.19708
5.47
5.69189
5.85423
5.96824
6.05686
6.11971
6.09984
5.93877
5.65216
5.367
5.1587
5.05161
5.02663
5.03213
4.97716
4.75129
4.267
3.5384
2.75026
2.24397
2.36884
2.8993
3.28456
3.50605
3.71561
3.9154
4.17936
4.46612
4.77589
5.08269
5.3549
5.58545
5.77148
5.91919
6.05202
6.17471
6.21522
6.12971
5.94536
5.77627
5.65577
5.61635
5.64097
5.68157
5.6503
5.42495
4.90454
4.07521
3.10697
2.40884
2.41977
2.86815
3.21963
3.42665
3.62118
3.81867
4.0981
4.39005
4.70253
5.01721
5.302
5.55669
5.78369
5.9942
6.19188
6.38754
6.51452
6.53869
6.48439
6.44861
6.44462
6.49874
6.5894
6.67041
6.65459
6.40715
5.82211
4.83975
3.61742
2.65037
2.49942
2.87302
3.18771
3.37964
3.55812
3.75271
4.05293
4.35409
4.6772
5.01183
5.35293
5.67788
5.97193
6.26182
6.55803
6.86338
7.1175
7.29157
7.40379
7.55738
7.72667
7.91941
8.10567
8.23543
8.21528
7.89917
7.18396
5.96268
4.37567
3.01261
2.64317
2.91924
3.20803
3.39135
3.55426
3.72825
4.05093
4.39583
4.77711
5.18226
5.60066
6.01394
6.41286
6.82995
7.27835
7.75298
8.19899
8.597
8.96542
9.42065
9.86871
10.2825
10.6116
10.7981
10.7278
10.2519
9.25428
7.64983
5.54259
3.58259
2.89192
3.04516
3.29369
3.46672
3.61549
3.80486
4.20305
4.62658
5.10081
5.61101
6.15242
6.72003
7.29439
7.92058
8.6138
9.36215
10.1184
10.8784
11.6696
12.6297
13.5418
14.3069
14.8444
15.0793
14.8515
13.969
12.4231
10.2174
7.39259
4.54754
3.36152
3.3542
3.5465
3.70075
3.83459
4.11446
4.63876
5.20446
5.83721
6.53491
7.29244
8.13257
9.00988
9.9928
11.0961
12.3035
13.5808
14.9482
16.4505
18.2414
19.879
21.1476
21.9243
21.9186
21.0826
19.4654
17.1281
14.1021
10.3745
6.33027
4.36281
4.06152
4.16784
4.27697
4.38461
5.00906
5.7413
6.56803
7.49661
8.53781
9.68633
11.0115
12.4226
14.0221
15.8189
17.7916
19.9256
22.2714
24.8795
27.8578
30.3805
31.8703
32.0654
31.1886
29.4217
26.8878
23.6678
19.7739
15.1372
9.79376
6.64542
5.78649
5.69928
5.68802
5.71653
7.51833
8.62307
9.94292
11.4207
13.0826
14.9251
17.0726
19.3742
21.9681
24.838
27.9501
31.3053
34.9485
38.8582
42.8416
44.9176
45.1373
43.9086
41.7411
38.9104
35.579
31.7744
27.4008
22.2889
16.2721
12.0003
10.1504
9.64257
9.31453
9.08758
14.6587
16.3855
18.5285
20.8826
23.4786
26.3174
29.5665
33.0199
36.825
40.8996
45.1714
49.6003
54.0832
58.1492
60.2502
59.5783
57.3272
54.0838
50.499
46.8324
43.2497
39.687
35.8799
31.4942
26.4186
22.3906
20.2693
19.3767
18.5699
17.8321
31.7547
34.3724
37.3603
40.4609
43.721
47.1813
50.9672
54.9124
59.1018
63.3658
67.5333
71.2382
73.7625
73.6256
71.3839
66.7517
61.5897
56.425
51.8452
48.0092
45.0196
42.748
40.8373
38.869
36.7473
35.2806
35.1907
35.8554
36.3399
36.2718
47.8262
52.5433
56.593
60.2792
63.4188
66.3428
69.178
71.9073
74.4611
76.687
78.2209
78.1293
75.7028
71.253
65.2376
58.0644
51.5395
45.9345
41.5339
38.3529
36.3654
35.4656
35.3856
35.8395
36.6432
38.3196
40.8832
43.4198
46.0474
49.3857
24.5552
31.7736
34.1678
35.3688
35.5331
34.6912
33.0199
30.7293
27.9824
24.9318
21.6801
18.3216
14.9342
11.5186
8.68165
7.05042
6.37219
7.24647
7.46729
6.99969
4.52947
2.02346
2.12526
3.08073
3.96493
4.55428
5.32225
6.24621
7.06071
7.94193
13.381
15.0996
15.8653
16.3405
16.5428
16.3801
15.8442
14.9885
13.8817
12.5829
11.1476
9.5886
7.91993
6.33256
5.30497
4.87333
4.68013
4.92155
5.05071
4.90923
3.69963
1.77534
1.56553
1.94764
2.39268
3.04987
3.86711
4.60005
5.42242
6.38989
12.0134
12.7844
13.1463
13.3393
13.3807
13.2423
12.8937
12.331
11.5746
10.6499
9.59284
8.40547
7.06582
5.80505
5.04156
4.71416
4.48139
4.44625
4.51312
4.44975
3.62037
2.1191
1.81101
2.07435
2.51222
3.16157
4.00284
4.76511
5.62443
6.56201
11.4899
11.8915
12.0974
12.1825
12.1766
12.0672
11.8178
11.4038
10.8228
10.0799
9.19755
8.17465
6.99208
5.84954
5.14623
4.78471
4.467
4.27247
4.26146
4.21696
3.60961
2.48522
2.12642
2.31044
2.74119
3.37428
4.22854
5.01863
5.86751
6.75307
11.0893
11.2769
11.4039
11.457
11.4595
11.3978
11.2285
10.9185
10.4556
9.8315
9.06923
8.1804
7.06993
5.99262
5.30479
4.88621
4.49546
4.20536
4.12844
4.08078
3.67157
2.79904
2.42138
2.5437
2.95881
3.57541
4.4314
5.23374
6.04454
6.87555
10.6327
10.7034
10.7986
10.8641
10.9048
10.9024
10.8064
10.5795
10.2064
9.67336
9.01845
8.2124
7.15567
6.1381
5.45469
4.98245
4.53861
4.20014
4.09357
4.02655
3.72932
3.04729
2.67284
2.74757
3.13586
3.74641
4.58831
5.38991
6.15075
6.92187
10.1076
10.1198
10.2193
10.3234
10.4172
10.475
10.4477
10.2919
9.99176
9.53514
8.96913
8.23147
7.22391
6.26475
5.58612
5.06883
4.59144
4.25031
4.10032
4.00903
3.76661
3.23484
2.86969
2.91067
3.273
3.88261
4.69447
5.48692
6.19472
6.89372
9.53762
9.52942
9.65758
9.81245
9.96373
10.0793
10.1123
10.019
9.78062
9.39117
8.89712
8.22788
7.27327
6.37512
5.70136
5.14778
4.65378
4.32317
4.13024
4.00474
3.78731
3.36381
3.0101
3.02586
3.36943
3.9795
4.75336
5.52954
6.18281
6.79008
8.94273
8.95146
9.1177
9.32628
9.53278
9.70132
9.78444
9.74632
9.56129
9.23223
8.79625
8.1912
7.30901
6.47472
5.8045
5.22303
4.72777
4.40593
4.17693
4.01258
3.80017
3.4398
3.10704
3.09321
3.42438
4.03483
4.78022
5.52235
6.10599
6.62481
8.34277
8.3962
8.60536
8.86391
9.12032
9.3346
9.4596
9.46804
9.33034
9.05656
8.67698
8.1318
7.33911
6.56803
5.89923
5.29837
4.81903
4.4952
4.24061
4.03947
3.81292
3.47825
3.17147
3.12472
3.44278
4.0519
4.76332
5.4517
5.97954
6.42557
7.77208
7.87152
8.12285
8.42545
8.72508
8.97765
9.13785
9.18292
9.08862
8.86625
8.54431
8.06155
7.3704
6.65751
5.98869
5.37766
4.92435
4.59598
4.32413
4.09188
3.83464
3.5011
3.19731
3.12065
3.41299
4.01325
4.69771
5.33164
5.81284
6.20319
7.24057
7.38328
7.67219
8.01209
8.34727
8.63089
8.81935
8.89369
8.83953
8.66677
8.40489
7.99162
7.40616
6.74404
6.07644
5.46612
5.04326
4.71403
4.43253
4.17288
3.87651
3.52434
3.20495
3.08582
3.34588
3.9316
4.59603
5.18693
5.61588
5.96803
6.75311
6.93601
7.25578
7.62542
7.98786
8.29504
8.50583
8.60428
8.58783
8.46492
8.2668
7.92957
7.44723
6.82899
6.16787
5.57186
5.18014
4.85668
4.57342
4.29191
3.95885
3.5615
3.21005
3.04268
3.25868
3.82216
4.46901
5.02629
5.40738
5.73023
6.31252
6.53182
6.8753
7.26664
7.64801
7.9716
8.19975
8.32031
8.3392
8.26867
8.13899
7.88417
7.49423
6.91636
6.27174
5.70872
5.34299
5.03403
4.75742
4.46128
4.08886
3.63042
3.22265
3.00241
3.16282
3.69613
4.32606
4.85505
5.1992
5.49748
5.92308
6.17221
6.53202
6.93699
7.32949
7.66336
7.90551
8.04847
8.10168
8.0872
8.03121
7.867
7.55354
7.01514
6.40203
5.89196
5.54877
5.26196
5.00045
4.69573
4.28753
3.76105
3.26069
2.97844
3.06868
3.56386
4.17522
4.67918
4.99797
5.27524
5.58558
5.85956
6.22754
6.63846
7.03543
7.37516
7.63009
7.79761
7.88728
7.93118
7.95286
7.88005
7.63495
7.14104
6.58102
6.13564
5.82021
5.56513
5.32545
5.01866
4.57813
3.97074
3.35023
2.97443
2.98786
3.43562
4.02463
4.50491
4.806
5.06835
5.29677
5.59064
5.96513
6.37508
6.77136
7.11452
7.38337
7.57831
7.70911
7.8155
7.91789
7.93296
7.75557
7.32007
6.84464
6.46484
6.19066
5.97823
5.76698
5.46498
4.98645
4.28972
3.53095
3.00452
2.93234
3.32058
3.8818
4.33796
4.62685
4.88329
5.05241
5.36243
5.74387
6.15514
6.54645
6.89255
7.17893
7.40578
7.58266
7.75917
7.95009
8.05451
7.94501
7.59253
7.23101
6.92313
6.71117
6.55319
6.37842
6.08455
5.55831
4.75749
3.82268
3.10934
2.91942
3.23087
3.75454
4.18438
4.46413
4.71976
4.84785
5.17734
5.56515
5.9802
6.3749
6.72587
7.03647
7.30005
7.53048
7.78578
8.0804
8.28094
8.25687
8.02128
7.78822
7.58102
7.45881
7.3705
7.24421
6.94848
6.36036
5.42999
4.27905
3.32087
2.9559
3.18756
3.65514
4.05347
4.32291
4.57502
4.68097
5.03002
5.42534
5.84731
6.25436
6.62679
6.96958
7.27153
7.59566
7.95492
8.35771
8.67065
8.77412
8.68617
8.60932
8.54925
8.55109
8.55721
8.49249
8.16849
7.48929
6.39213
4.96998
3.67083
3.07097
3.2129
3.6048
3.95863
4.21289
4.46038
4.552
4.92452
5.33131
5.76529
6.19157
6.59402
7.00616
7.41671
7.84613
8.3255
8.86322
9.32394
9.60046
9.69903
9.8521
10.0029
10.174
10.3184
10.2864
9.89957
9.07886
7.76151
5.99751
4.22834
3.29533
3.29781
3.62695
3.93727
4.16765
4.39598
4.4736
4.86925
5.29192
5.74941
6.23948
6.74445
7.26248
7.78547
8.355
8.99818
9.71806
10.3772
10.8905
11.2639
11.7605
12.2105
12.625
12.9112
12.8579
12.34
11.2999
9.68772
7.5037
5.11157
3.71532
3.49209
3.72166
3.99147
4.20458
4.41437
4.46129
4.9032
5.39941
5.95218
6.54224
7.1581
7.81105
8.50244
9.27239
10.1467
11.124
12.069
12.9271
13.7112
14.7193
15.5936
16.3303
16.6389
16.455
15.6964
14.3355
12.3392
9.66738
6.50857
4.46474
3.87991
3.97851
4.17842
4.35737
4.53597
4.66093
5.19112
5.79561
6.47363
7.20849
7.99345
8.85511
9.80186
10.8669
12.0795
13.4354
14.8061
16.1745
17.571
19.3186
20.7656
21.5927
21.7461
21.2432
20.0981
18.3142
15.8668
12.6844
8.7019
5.81579
4.6821
4.54833
4.64401
4.76209
4.90448
5.23871
5.91443
6.69645
7.57479
8.5438
9.59793
10.7865
12.1237
13.6317
15.3468
17.2637
19.2645
21.3727
23.6397
26.341
28.0365
28.5778
28.2011
27.1235
25.4433
23.1965
20.329
16.7196
12.0603
8.2636
6.3923
5.79963
5.69112
5.68546
5.75605
6.69771
7.58362
8.65742
9.86525
11.209
12.6855
14.3779
16.3
18.4575
20.8977
23.6073
26.4777
29.5585
32.8711
36.3815
37.291
36.844
35.4097
33.4986
31.2241
28.6179
25.5462
21.7994
16.9284
12.5105
9.8476
8.60608
8.07753
7.77886
7.66355
10.2815
11.4753
13.0004
14.7053
16.5991
18.6818
21.0754
23.782
26.7892
30.1428
33.8049
37.6528
41.6866
45.7004
48.3879
47.2602
44.9279
41.9854
39.1104
36.3398
33.6596
30.8325
27.5297
23.2794
19.0975
16.1889
14.5803
13.4981
12.6237
12.0379
18.8292
20.3971
22.4463
24.7037
27.1802
29.8839
32.9688
36.4141
40.1959
44.3162
48.6654
53.0369
57.1341
59.6223
59.581
55.0474
50.2746
45.6974
41.9693
38.9716
36.6251
34.6211
32.537
29.9765
27.3266
25.4647
24.5352
23.9724
23.0458
21.8062
34.9772
37.2434
39.6058
42.0452
44.6117
47.3866
50.5212
53.9902
57.7603
61.7236
65.6158
68.9761
70.4769
68.979
64.9339
56.6363
49.6917
43.8972
39.728
36.8629
35.1461
34.2965
33.9637
33.7491
33.6445
34.143
35.3115
36.635
37.6855
38.3063
45.8809
50.4998
54.4025
57.5981
60.1026
62.4597
64.9234
67.5068
70.129
72.5779
74.3992
74.6862
71.9178
66.5371
59.1716
48.9792
41.2247
35.3624
31.4186
28.9678
27.8357
27.7729
28.6147
29.9484
31.6884
34.2381
37.3013
40.4464
43.7838
47.6806
30.9194
39.704
42.6706
43.8142
44.0151
43.0734
41.0884
38.2645
34.7664
30.7653
26.3703
21.6723
16.8087
12.2095
9.74505
10.9747
14.4771
18.3963
19.2969
18.6035
15.9868
12.0906
7.28739
6.32968
7.30163
8.87149
10.3459
10.6358
10.7498
10.804
16.3761
18.2884
19.0864
19.4419
19.6391
19.4943
18.9315
17.9785
16.693
15.123
13.3359
11.3165
9.07592
7.17696
6.62724
7.44011
9.00063
10.8604
11.4072
11.3039
10.4233
8.85458
6.29415
5.37642
5.64691
6.38192
7.03299
7.38024
7.92421
8.61412
14.5312
15.2857
15.5723
15.6783
15.6816
15.5369
15.1832
14.5864
13.7481
12.6722
11.3988
9.90096
8.15083
6.74439
6.41434
6.89579
7.80601
9.10213
9.59633
9.64257
9.1443
8.08704
6.36743
5.65886