/*--------------------------------*- C++ -*----------------------------------*\
| =========                 |                                                 |
| \\      /  F ield         | OpenFOAM: The Open Source CFD Toolbox           |
|  \\    /   O peration     | Version:  5.0                                   |
|   \\  /    A nd           | Web:      www.OpenFOAM.org                      |
|    \\/     M anipulation  |                                                 |
\*---------------------------------------------------------------------------*/
FoamFile
{
    version     2.0;
    format      ascii;
    class       volScalarField;
    location    "650/air";
    object      k;
}
// * * * * * * * * * * * * * * * * * * * * * * * * * * * * * * * * * * * * * //

dimensions      [0 2 -2 0 0 0 0];

internalField   nonuniform List<scalar> 
243000
(
0.124583
0.133266
0.134212
0.132089
0.127422
0.121222
0.1142
0.10691
0.0997498
0.0930743
0.0871897
0.0824001
0.0788493
0.0759688
0.0728746
0.0692306
0.0650643
0.0605909
0.0560001
0.0514791
0.0465651
0.039868
0.0323609
0.0354232
0.0464828
0.0516564
0.0580417
0.0640652
0.0700811
0.07869
0.199482
0.21847
0.217486
0.211694
0.202785
0.192036
0.180397
0.168551
0.156954
0.145999
0.136027
0.127252
0.119488
0.111997
0.104639
0.0976866
0.0911761
0.0851232
0.0793776
0.0737722
0.0677024
0.0595485
0.048716
0.0559556
0.0770353
0.0890468
0.100502
0.112069
0.124945
0.139627
0.23887
0.262329
0.262226
0.25583
0.245477
0.232846
0.219086
0.204982
0.191058
0.177794
0.165633
0.154829
0.145013
0.135222
0.125516
0.116446
0.108147
0.100648
0.0936818
0.0868426
0.0794917
0.0703846
0.0582618
0.0607131
0.0879507
0.105513
0.120887
0.136338
0.153888
0.171634
0.265412
0.290771
0.292311
0.28643
0.276043
0.262985
0.24847
0.233352
0.218222
0.203657
0.19021
0.178209
0.167145
0.155836
0.144422
0.133642
0.123759
0.114886
0.106708
0.0986337
0.0899129
0.0797743
0.0664501
0.0630427
0.0936086
0.116545
0.136059
0.155134
0.17632
0.196133
0.283637
0.309231
0.312411
0.307508
0.29786
0.285238
0.27082
0.255498
0.239909
0.224723
0.210612
0.197991
0.186221
0.173945
0.161308
0.149192
0.13799
0.127916
0.118658
0.109465
0.0994855
0.0883734
0.0740841
0.0654451
0.0951138
0.12366
0.146706
0.16916
0.193557
0.215164
0.295504
0.320858
0.32534
0.321625
0.313151
0.301483
0.287703
0.272708
0.257172
0.241849
0.227513
0.214678
0.202587
0.189748
0.176244
0.163107
0.150861
0.139781
0.1296
0.11943
0.108382
0.0964077
0.0814133
0.0693342
0.0921381
0.12793
0.154341
0.179169
0.205955
0.228515
0.302899
0.327068
0.3329
0.330516
0.323463
0.313054
0.300247
0.285934
0.270807
0.255694
0.241455
0.228697
0.216561
0.203454
0.18937
0.17548
0.162427
0.150532
0.139586
0.128573
0.116667
0.103964
0.0884615
0.0740178
0.0875432
0.129903
0.15956
0.186363
0.215066
0.238033
0.306597
0.328704
0.336272
0.335399
0.329908
0.320924
0.309294
0.295889
0.281419
0.26677
0.252866
0.240393
0.228418
0.215255
0.20083
0.186417
0.172766
0.16024
0.148668
0.13693
0.124373
0.111089
0.0952162
0.0790941
0.0838998
0.130293
0.162874
0.191329
0.221139
0.244574
0.306921
0.327301
0.336241
0.337154
0.333274
0.325795
0.315472
0.303118
0.289475
0.275476
0.262088
0.250051
0.238387
0.225321
0.210752
0.19602
0.181957
0.168975
0.156904
0.144544
0.131527
0.117803
0.101662
0.0843189
0.0820204
0.129567
0.164744
0.194487
0.224606
0.248472
0.304895
0.323812
0.334002
0.336602
0.334384
0.328309
0.31923
0.308018
0.295336
0.282126
0.269393
0.257906
0.246651
0.233793
0.219254
0.204387
0.19008
0.176799
0.164348
0.151464
0.138159
0.12413
0.107795
0.0896725
0.0818733
0.127793
0.165499
0.196106
0.225857
0.250073
0.300972
0.318758
0.330039
0.334206
0.333685
0.329103
0.321199
0.311014
0.299283
0.286969
0.274996
0.264149
0.253361
0.240807
0.226443
0.211608
0.197214
0.183765
0.171058
0.15775
0.144306
0.130085
0.113639
0.0950558
0.0838306
0.124263
0.165354
0.196432
0.225228
0.249804
0.295407
0.312478
0.324681
0.33037
0.331405
0.32839
0.321758
0.312534
0.301676
0.29023
0.279088
0.268929
0.258646
0.246483
0.23242
0.217766
0.203433
0.189941
0.177077
0.16347
0.150013
0.135702
0.119219
0.100401
0.0866768
0.120095
0.164062
0.195353
0.22265
0.247694
0.288422
0.305203
0.318192
0.325384
0.327853
0.326281
0.32101
0.312865
0.302821
0.292164
0.281835
0.272385
0.26263
0.25093
0.237281
0.222943
0.208807
0.195391
0.182466
0.168697
0.155333
0.141022
0.124566
0.10563
0.0899135
0.115922
0.16191
0.193147
0.218793
0.244173
0.28022
0.297105
0.310839
0.319397
0.32325
0.323043
0.319001
0.312013
0.302946
0.293023
0.283396
0.274644
0.26543
0.254254
0.241118
0.227221
0.213408
0.200181
0.187285
0.173566
0.160329
0.146072
0.129673
0.110698
0.0934544
0.111957
0.159136
0.190335
0.215091
0.239453
0.271032
0.288291
0.30277
0.312566
0.31778
0.318818
0.315972
0.310003
0.301985
0.292987
0.284017
0.275819
0.267151
0.256559
0.244028
0.230684
0.217306
0.204379
0.191597
0.17812
0.165032
0.150872
0.134558
0.115607
0.0971992
0.108306
0.155878
0.187024
0.211023
0.23373
0.261509
0.278917
0.294122
0.305028
0.311561
0.313737
0.312026
0.307051
0.299964
0.291944
0.283798
0.276159
0.26793
0.257958
0.24611
0.233417
0.220578
0.208052
0.195469
0.182338
0.16946
0.155451
0.139255
0.120373
0.101072
0.105144
0.15221
0.183236
0.206456
0.227255
0.252519
0.2695
0.285057
0.296938
0.304653
0.307911
0.307266
0.30326
0.297096
0.289977
0.282648
0.275672
0.267993
0.258571
0.247474
0.235515
0.223305
0.211266
0.198966
0.186256
0.173652
0.159845
0.143804
0.125021
0.105056
0.102661
0.14819
0.179053
0.201651
0.221445
0.243894
0.260711
0.275959
0.288438
0.297164
0.301453
0.301795
0.298726
0.293485
0.287253
0.280727
0.274399
0.267286
0.258594
0.24824
0.237074
0.225573
0.214086
0.202151
0.189923
0.177655
0.164106
0.148262
0.129601
0.109218
0.101054
0.143873
0.174569
0.196724
0.215955
0.235526
0.252383
0.267444
0.279718
0.289217
0.294487
0.295712
0.293556
0.289216
0.283873
0.278157
0.272481
0.265964
0.257994
0.248485
0.238182
0.227449
0.216563
0.205074
0.193392
0.181523
0.168287
0.152684
0.134172
0.113492
0.101262
0.138952
0.16991
0.191798
0.210686
0.227361
0.244415
0.259387
0.271466
0.280988
0.287095
0.289118
0.287832
0.284371
0.279924
0.275004
0.269991
0.264115
0.256914
0.248296
0.238903
0.228975
0.218733
0.207763
0.196703
0.185302
0.172442
0.15713
0.138807
0.117941
0.102904
0.133657
0.165188
0.186953
0.205607
0.219396
0.236751
0.251697
0.263641
0.272953
0.279365
0.28207
0.281595
0.279009
0.275437
0.271307
0.266975
0.261786
0.255401
0.247713
0.239259
0.230155
0.220588
0.210231
0.199893
0.189035
0.176624
0.161661
0.143563
0.122596
0.105349
0.128636
0.16054
0.182251
0.200706
0.211667
0.229372
0.244328
0.256189
0.265335
0.271687
0.274655
0.274903
0.273141
0.27042
0.26707
0.263438
0.258964
0.253436
0.246698
0.239179
0.230933
0.222089
0.212586
0.203032
0.192783
0.1809
0.166377
0.148519
0.127501
0.108542
0.124282
0.156126
0.177776
0.196018
0.204251
0.222298
0.237267
0.249065
0.25807
0.264414
0.267536
0.26806
0.266846
0.264906
0.262306
0.259371
0.25562
0.250953
0.245175
0.238615
0.231245
0.223332
0.214977
0.206253
0.19667
0.185386
0.171374
0.153793
0.132731
0.112449
0.121037
0.152194
0.173695
0.191642
0.197278
0.21558
0.230504
0.242209
0.251143
0.257568
0.260937
0.261797
0.261112
0.259705
0.257696
0.2553
0.25222
0.248375
0.243628
0.238133
0.231915
0.225117
0.217788
0.209887
0.201
0.190362
0.176923
0.159694
0.138493
0.11706
0.119261
0.149046
0.170269
0.187788
0.190938
0.209308
0.224095
0.235718
0.244647
0.251169
0.254854
0.25612
0.256057
0.255278
0.253941
0.252198
0.249888
0.246938
0.243248
0.238867
0.233804
0.228099
0.221753
0.214663
0.206465
0.196458
0.183581
0.166662
0.145283
0.122557
0.11951
0.146951
0.167661
0.1846
0.185674
0.203878
0.218377
0.229832
0.238744
0.245397
0.249487
0.251299
0.251993
0.252035
0.25155
0.250687
0.249402
0.247601
0.245196
0.242136
0.23836
0.233809
0.228447
0.222139
0.214551
0.205046
0.192549
0.175785
0.153942
0.129621
0.121908
0.146664
0.166386
0.182446
0.182462
0.200179
0.214271
0.225463
0.234347
0.241257
0.24608
0.248754
0.250581
0.251869
0.252748
0.253357
0.253684
0.253602
0.252979
0.251618
0.249321
0.245976
0.2415
0.235755
0.228456
0.219054
0.206562
0.189522
0.166765
0.140255
0.128189
0.149473
0.167877
0.182735
0.185342
0.202274
0.215976
0.227314
0.236736
0.244471
0.25088
0.255397
0.259402
0.263026
0.26645
0.269842
0.273036
0.275714
0.277513
0.278057
0.277109
0.274507
0.270243
0.264267
0.256366
0.246148
0.232768
0.214826
0.190744
0.161484
0.145291
0.161429
0.177338
0.190064
0.222373
0.238841
0.252923
0.265412
0.27666
0.286284
0.295593
0.303796
0.311758
0.319043
0.326499
0.334484
0.34186
0.347842
0.351763
0.353334
0.352422
0.349054
0.343505
0.335909
0.325916
0.313586
0.298519
0.279595
0.255448
0.226203
0.20651
0.214968
0.225751
0.234147
0.450207
0.462508
0.473214
0.482955
0.49163
0.495613
0.500297
0.506312
0.51269
0.516901
0.523466
0.53301
0.540502
0.544941
0.545977
0.544961
0.541391
0.53625
0.530104
0.523673
0.51445
0.504795
0.495396
0.485285
0.473338
0.458802
0.450655
0.454463
0.459535
0.46265
0.182765
0.206201
0.212263
0.211611
0.205945
0.196904
0.185721
0.173426
0.160729
0.148203
0.136378
0.125828
0.116743
0.107874
0.0979498
0.0870228
0.0754799
0.0640044
0.0530119
0.0432574
0.03629
0.0336252
0.0314301
0.0398467
0.050171
0.054683
0.0623316
0.0686324
0.075979
0.0938725
0.30276
0.342096
0.346657
0.337655
0.320853
0.299964
0.277335
0.254267
0.231459
0.20945
0.188653
0.16924
0.150278
0.131316
0.114601
0.101634
0.0912846
0.0831089
0.0756657
0.0690655
0.0625715
0.053079
0.0472707
0.0612771
0.0845802
0.107272
0.128183
0.14575
0.155788
0.18038
0.371302
0.421072
0.431087
0.423448
0.406017
0.382956
0.356943
0.329577
0.301814
0.27453
0.248417
0.223627
0.198744
0.173481
0.151471
0.134834
0.122157
0.112715
0.104712
0.09766
0.0890749
0.0733087
0.0594742
0.0684851
0.0997572
0.136507
0.170572
0.198255
0.213938
0.242051
0.418412
0.469548
0.483217
0.477972
0.462479
0.440467
0.414417
0.385952
0.356236
0.326456
0.297555
0.269705
0.241235
0.211955
0.186219
0.166491
0.151487
0.140569
0.131938
0.124502
0.113949
0.0926087
0.0707294
0.0716878
0.10806
0.15491
0.201362
0.238804
0.260819
0.290835
0.450851
0.49995
0.515631
0.512878
0.500237
0.48066
0.456167
0.428271
0.398273
0.367616
0.337498
0.308163
0.277637
0.245853
0.21743
0.195193
0.178145
0.165937
0.156961
0.149553
0.137369
0.111663
0.0825899
0.0753037
0.111441
0.167919
0.223543
0.270619
0.298843
0.330569
0.4722
0.518787
0.534771
0.53445
0.525
0.508473
0.486333
0.459934
0.43066
0.400188
0.369913
0.340145
0.308637
0.275404
0.245041
0.220809
0.202087
0.188882
0.17989
0.172938
0.159371
0.130432
0.0956307
0.0813006
0.111533
0.176698
0.241131
0.295024
0.329132
0.362409
0.485974
0.527016
0.544342
0.546584
0.540412
0.527161
0.507733
0.483346
0.455426
0.425835
0.396133
0.366681
0.334986
0.301059
0.269345
0.243552
0.223554
0.209635
0.200875
0.194614
0.179978
0.148745
0.109738
0.0895698
0.110622
0.182242
0.254561
0.313955
0.352077
0.386918
0.493141
0.527132
0.545501
0.551772
0.548922
0.538948
0.522322
0.50019
0.474004
0.445773
0.417165
0.388552
0.357309
0.323171
0.290623
0.263681
0.242771
0.228432
0.220078
0.214641
0.199224
0.166434
0.124498
0.0990175
0.111686
0.185072
0.264484
0.328446
0.369065
0.405596
0.49411
0.523661
0.542399
0.551466
0.552261
0.545394
0.531458
0.511671
0.487446
0.460907
0.433784
0.40639
0.376014
0.342079
0.309123
0.281427
0.259962
0.245485
0.237695
0.233111
0.21715
0.183371
0.139501
0.108902
0.114872
0.186362
0.271532
0.338422
0.381596
0.419257
0.491667
0.517611
0.536606
0.548139
0.552162
0.548015
0.536287
0.518683
0.496535
0.471923
0.446582
0.420717
0.39142
0.358048
0.325073
0.297006
0.275325
0.260984
0.253942
0.25013
0.233812
0.199485
0.154443
0.119243
0.119427
0.187038
0.276201
0.344889
0.389925
0.428476
0.486585
0.509574
0.528992
0.54237
0.548984
0.548232
0.538503
0.522597
0.502045
0.479432
0.456039
0.431871
0.403874
0.371339
0.338693
0.310631
0.289059
0.27509
0.269085
0.265816
0.249281
0.214737
0.169122
0.130066
0.124854
0.187249
0.278913
0.34845
0.394715
0.433665
0.47893
0.500055
0.519898
0.534787
0.543605
0.54549
0.538684
0.524214
0.505127
0.484004
0.462625
0.44023
0.413681
0.382217
0.350215
0.322519
0.301366
0.287983
0.283159
0.280293
0.26366
0.229213
0.183363
0.141376
0.130877
0.186997
0.280071
0.349775
0.396648
0.435589
0.468961
0.489414
0.509631
0.52585
0.536584
0.540709
0.536312
0.524111
0.506306
0.486554
0.466734
0.446161
0.421135
0.390951
0.359896
0.332907
0.312467
0.299881
0.296292
0.293724
0.277099
0.24305
0.197199
0.15296
0.137299
0.186169
0.279945
0.349073
0.396133
0.434788
0.457188
0.477741
0.498482
0.515906
0.528294
0.534245
0.532041
0.521674
0.505888
0.487506
0.469052
0.45002
0.426577
0.397847
0.368023
0.342064
0.322607
0.31107
0.308701
0.30631
0.289856
0.256378
0.210732
0.164724
0.143903
0.184828
0.27779
0.345733
0.392113
0.430709
0.444128
0.465324
0.48674
0.505239
0.519037
0.526486
0.526278
0.517423
0.503549
0.487134
0.470012
0.452319
0.430415
0.403278
0.374941
0.350304
0.332062
0.321926
0.320655
0.318366
0.302245
0.269409
0.223904
0.176662
0.150827
0.183629
0.274088
0.340356
0.385849
0.424043
0.430816
0.452708
0.474741
0.49412
0.509081
0.517809
0.519312
0.512078
0.499677
0.485317
0.470029
0.453613
0.433121
0.407689
0.381069
0.358012
0.341184
0.332811
0.332443
0.330271
0.31461
0.282441
0.236998
0.188669
0.158008
0.183047
0.269242
0.33339
0.377829
0.415406
0.416924
0.440615
0.462931
0.482897
0.498746
0.50856
0.511506
0.50598
0.495137
0.482577
0.469133
0.45434
0.435251
0.411625
0.386926
0.365679
0.350458
0.343954
0.344386
0.34239
0.327329
0.295859
0.25042
0.200878
0.165706
0.183193
0.263527
0.325296
0.368613
0.405343
0.402705
0.428497
0.451972
0.472074
0.488481
0.499178
0.503358
0.499592
0.490441
0.479624
0.46807
0.455064
0.437447
0.415761
0.393161
0.373931
0.3606
0.355721
0.356859
0.35512
0.340822
0.310128
0.26484
0.213715
0.174234
0.183808
0.257307
0.316561
0.358824
0.394916
0.388477
0.416616
0.441427
0.462389
0.478912
0.490274
0.495527
0.493563
0.48622
0.477224
0.468005
0.456427
0.440538
0.420945
0.400614
0.383653
0.372301
0.368707
0.370367
0.368919
0.355561
0.325779
0.280644
0.227785
0.183862
0.18582
0.251016
0.307656
0.348998
0.38462
0.374634
0.405292
0.431515
0.453596
0.470968
0.482695
0.488903
0.48871
0.483351
0.476908
0.469293
0.459442
0.445583
0.428271
0.410411
0.395836
0.386245
0.383738
0.385609
0.384381
0.372082
0.343475
0.29852
0.243994
0.195215
0.189456
0.245154
0.299098
0.339614
0.374824
0.361726
0.394766
0.42251
0.445984
0.464841
0.477734
0.48481
0.486192
0.483446
0.479082
0.473492
0.465606
0.454046
0.439264
0.424253
0.411963
0.403845
0.401975
0.403627
0.402422
0.39117
0.364071
0.31932
0.262885
0.209174
0.194756
0.240344
0.291406
0.331131
0.365941
0.350243
0.385344
0.41481
0.439936
0.460464
0.47535
0.48425
0.488012
0.487674
0.485785
0.482515
0.476904
0.468022
0.456295
0.444263
0.433993
0.427076
0.425239
0.426211
0.424726
0.414304
0.388801
0.344264
0.285443
0.226377
0.202233
0.237802
0.285442
0.32427
0.358557
0.34056
0.377572
0.408936
0.43593
0.458322
0.475691
0.488493
0.495215
0.498172
0.499436
0.499106
0.496383
0.490562
0.48202
0.473032
0.464896
0.459171
0.457074
0.456929
0.454668
0.444457
0.419994
0.375527
0.31339
0.247685
0.213379
0.239161
0.283196
0.320703
0.353749
0.333368
0.372157
0.405556
0.434601
0.460143
0.482331
0.498895
0.509143
0.516213
0.521671
0.525478
0.526852
0.525127
0.520771
0.51567
0.51064
0.506688
0.50457
0.503135
0.499179
0.48766
0.462542
0.417131
0.349984
0.275224
0.228709
0.244622
0.285731
0.322213
0.353865
0.329898
0.370373
0.406752
0.440339
0.47087
0.497667
0.518697
0.534008
0.546852
0.558077
0.567599
0.575027
0.579804
0.582099
0.583625
0.584258
0.583951
0.582684
0.579445
0.571841
0.555789
0.526184
0.476629
0.402141
0.314297
0.250357
0.256663
0.293945
0.329251
0.359491
0.336487
0.380915
0.422005
0.460236
0.496584
0.529413
0.557458
0.581283
0.603568
0.623787
0.641979
0.65767
0.673444
0.687266
0.700801
0.711318
0.716851
0.71684
0.710014
0.694973
0.668839
0.62811
0.567826
0.4828
0.377403
0.287947
0.2838
0.314985
0.348429
0.376956
0.368859
0.418581
0.466377
0.511979
0.557347
0.60074
0.640602
0.676222
0.711791
0.745823
0.777875
0.808876
0.840466
0.871286
0.90108
0.92328
0.933814
0.931761
0.916561
0.888191
0.845536
0.787405
0.710828
0.611747
0.488472
0.368866
0.346374
0.371066
0.400824
0.426318
0.472296
0.530094
0.588193
0.645839
0.703852
0.760315
0.815427
0.866734
0.918864
0.969152
1.01684
1.06386
1.11024
1.15337
1.18799
1.20634
1.20637
1.18863
1.15608
1.11126
1.05534
0.988103
0.906267
0.804984
0.679534
0.54855
0.503628
0.519136
0.541896
0.559851
0.747523
0.810999
0.875952
0.940592
1.00479
1.06654
1.12602
1.18204
1.23721
1.28888
1.33609
1.37634
1.40707
1.42554
1.42173
1.39459
1.3556
1.30904
1.25866
1.20769
1.1581
1.10976
1.05842
0.99754
0.923578
0.843386
0.810346
0.825617
0.845554
0.857547
1.09225
1.15421
1.20794
1.25949
1.30667
1.34758
1.3839
1.41464
1.43877
1.45674
1.46939
1.4695
1.45131
1.41792
1.36721
1.30912
1.25185
1.19696
1.14769
1.10589
1.07254
1.04924
1.03387
1.02174
1.0113
1.01346
1.03585
1.06347
1.08988
1.12196
0.229684
0.264793
0.272732
0.273201
0.267299
0.256654
0.242743
0.226815
0.209724
0.192157
0.174549
0.157389
0.140853
0.123542
0.10543
0.088463
0.0729805
0.0609077
0.0500925
0.0416119
0.0332367
0.0325984
0.033489
0.0451664
0.0574098
0.0622763
0.0696674
0.0746834
0.0871306
0.107479
0.380945
0.434861
0.44533
0.436921
0.417851
0.392967
0.365032
0.335668
0.305639
0.275446
0.24518
0.214763
0.182755
0.152906
0.133219
0.124256
0.11868
0.114766
0.106002
0.0909943
0.0684386
0.0529553
0.0498773
0.0718224
0.101609
0.130443
0.161451
0.183072
0.189477
0.207519
0.469814
0.531589
0.548401
0.541655
0.522327
0.495673
0.46453
0.430615
0.394889
0.358116
0.320635
0.282248
0.240767
0.202519
0.178863
0.169124
0.163266
0.158294
0.14731
0.127713
0.102788
0.0788591
0.0676868
0.0890043
0.128238
0.171432
0.214422
0.247862
0.264289
0.287808
0.531236
0.591945
0.61152
0.607117
0.589977
0.564824
0.534093
0.499329
0.461595
0.42186
0.380679
0.337756
0.290561
0.247392
0.220934
0.209175
0.201487
0.194475
0.181707
0.160272
0.135179
0.105985
0.0877005
0.104271
0.147815
0.201793
0.254331
0.298066
0.323562
0.351823
0.574933
0.630089
0.650913
0.648998
0.634988
0.612695
0.583946
0.550064
0.512174
0.471447
0.428602
0.383291
0.332911
0.28718
0.25877
0.244652
0.234733
0.225818
0.212394
0.191848
0.166159
0.133611
0.10963
0.120054
0.16413
0.225265
0.285821
0.338568
0.371508
0.403464
0.603322
0.653632
0.674259
0.674973
0.664575
0.645794
0.619798
0.587711
0.550728
0.510221
0.467083
0.420933
0.369173
0.322522
0.292683
0.276185
0.264029
0.253689
0.241098
0.22179
0.195542
0.160871
0.132677
0.137378
0.178845
0.24531
0.311009
0.371064
0.410033
0.444723
0.62039
0.664602
0.685931
0.68962
0.683046
0.668051
0.645161
0.615368
0.579953
0.540506
0.498111
0.452264
0.400579
0.354126
0.323192
0.304385
0.290142
0.27892
0.268048
0.249846
0.223086
0.187068
0.155901
0.155563
0.192597
0.26226
0.332679
0.396312
0.440148
0.476661
0.628038
0.664539
0.687043
0.695793
0.693246
0.68207
0.662374
0.635118
0.6017
0.563944
0.523099
0.478477
0.428028
0.38254
0.350718
0.329729
0.313653
0.302089
0.293066
0.275762
0.248641
0.211706
0.178426
0.173374
0.205378
0.27634
0.350617
0.416965
0.462579
0.500585
0.627452
0.660128
0.683148
0.695211
0.697244
0.689708
0.673086
0.648448
0.617308
0.581751
0.543092
0.500491
0.452165
0.408155
0.375569
0.352571
0.33505
0.323699
0.316152
0.299449
0.272184
0.234506
0.199542
0.189972
0.216888
0.287798
0.365014
0.432886
0.479798
0.518417
0.623324
0.652593
0.676042
0.691124
0.696975
0.692809
0.678846
0.656433
0.627766
0.594871
0.558915
0.518943
0.47351
0.431218
0.397982
0.373239
0.354694
0.344207
0.337363
0.321091
0.29382
0.255462
0.218787
0.204991
0.227048
0.296842
0.376185
0.444228
0.492216
0.531241
0.61612
0.642634
0.666693
0.684062
0.693072
0.693092
0.681407
0.661033
0.634345
0.60417
0.571265
0.53444
0.492417
0.451909
0.418165
0.392038
0.372895
0.363489
0.356768
0.340872
0.313566
0.274592
0.236069
0.218294
0.235898
0.303707
0.384481
0.452202
0.5005
0.539647
0.60592
0.630932
0.655576
0.674806
0.686558
0.689776
0.681618
0.663003
0.638241
0.610417
0.580843
0.547516
0.509115
0.470382
0.436338
0.409276
0.389997
0.381647
0.374693
0.359025
0.331493
0.292124
0.251673
0.229847
0.243393
0.308608
0.390227
0.457593
0.505384
0.544275
0.593264
0.617918
0.64308
0.663983
0.6781
0.683956
0.678779
0.66305
0.640032
0.614641
0.588288
0.558618
0.523791
0.486829
0.452781
0.425308
0.406435
0.398883
0.391485
0.375861
0.348024
0.308253
0.266026
0.239855
0.2495
0.311713
0.393711
0.460662
0.507536
0.545968
0.578905
0.603915
0.629735
0.652117
0.668216
0.676192
0.673694
0.660508
0.640282
0.617325
0.594147
0.568139
0.536693
0.501524
0.467871
0.440568
0.422796
0.415463
0.407486
0.391763
0.36348
0.323251
0.279431
0.248861
0.254255
0.313136
0.395138
0.461694
0.507565
0.545153
0.563846
0.58959
0.616097
0.639682
0.657362
0.667032
0.667032
0.655893
0.638813
0.618934
0.598943
0.576492
0.548185
0.514895
0.482126
0.455589
0.439287
0.431651
0.423093
0.407192
0.378426
0.337547
0.29209
0.257215
0.257805
0.31268
0.393944
0.459729
0.504693
0.541313
0.548881
0.575792
0.60284
0.627188
0.646024
0.6571
0.659227
0.650455
0.63626
0.620002
0.603235
0.584188
0.558799
0.527552
0.496239
0.471094
0.456218
0.447875
0.438801
0.422702
0.393524
0.351747
0.304348
0.265311
0.260807
0.309982
0.389789
0.454802
0.499332
0.535173
0.533885
0.56252
0.590543
0.615275
0.634811
0.647039
0.65098
0.644842
0.633555
0.621146
0.607688
0.591883
0.569283
0.540344
0.511128
0.488115
0.474128
0.464855
0.455246
0.438972
0.409554
0.366664
0.316558
0.273796
0.26345
0.30609
0.383772
0.447952
0.492214
0.52761
0.519081
0.549862
0.579055
0.604648
0.624513
0.63765
0.643204
0.639949
0.632027
0.623027
0.61313
0.600425
0.580634
0.554407
0.527997
0.507484
0.493667
0.483448
0.473281
0.456857
0.427445
0.383389
0.330231
0.283118
0.266464
0.302465
0.376941
0.440089
0.48399
0.51935
0.504675
0.53791
0.568543
0.595347
0.616088
0.629953
0.637036
0.636883
0.632636
0.627053
0.62067
0.610924
0.594187
0.571225
0.548539
0.530005
0.515849
0.504842
0.494098
0.477519
0.448365
0.403223
0.347032
0.294524
0.270577
0.299847
0.370094
0.431447
0.475245
0.510864
0.490923
0.526858
0.559216
0.587462
0.609789
0.625217
0.633992
0.637102
0.636413
0.634564
0.631768
0.625136
0.611686
0.592778
0.573955
0.55683
0.542435
0.530834
0.5195
0.502675
0.473857
0.427875
0.368047
0.309296
0.277472
0.300349
0.363543
0.422824
0.466575
0.502627
0.478206
0.517046
0.5514
0.581307
0.60549
0.623095
0.635423
0.642228
0.64528
0.647402
0.648478
0.645259
0.635862
0.621147
0.605698
0.590078
0.576115
0.564251
0.552311
0.535031
0.506204
0.459838
0.39554
0.328855
0.287771
0.303464
0.358642
0.415215
0.458745
0.495206
0.467157
0.509062
0.545445
0.577309
0.603599
0.624947
0.642522
0.653459
0.661164
0.668017
0.673645
0.674445
0.669089
0.658415
0.646657
0.63363
0.621266
0.609655
0.597135
0.578979
0.549374
0.502191
0.432743
0.355691
0.302077
0.310044
0.358124
0.410705
0.453238
0.489579
0.45888
0.503214
0.541904
0.576013
0.606609
0.63438
0.656929
0.67259
0.685717
0.69813
0.709024
0.714916
0.714488
0.709108
0.702619
0.694077
0.684997
0.674443
0.66133
0.641497
0.609699
0.559377
0.48415
0.393996
0.32284
0.320843
0.361996
0.411899
0.453404
0.488415
0.453933
0.500408
0.542143
0.58236
0.619889
0.653522
0.681633
0.703269
0.723058
0.742321
0.759814
0.772358
0.779145
0.7815
0.783368
0.782104
0.778297
0.769697
0.75558
0.73245
0.69482
0.637773
0.55524
0.450238
0.356279
0.339662
0.371754
0.418434
0.458563
0.492406
0.45539
0.507323
0.556419
0.603187
0.64733
0.687724
0.72307
0.752639
0.781162
0.809387
0.835762
0.857613
0.874852
0.889032
0.903792
0.912547
0.915004
0.90784
0.888072
0.855649
0.80854
0.742789
0.652136
0.533521
0.412897
0.37337
0.39474
0.434518
0.472255
0.504901
0.478929
0.537054
0.593099
0.647923
0.700297
0.749207
0.79471
0.835182
0.8755
0.915716
0.954095
0.988668
1.02012
1.04995
1.07991
1.0975
1.0993
1.08079
1.04857
1.00457
0.94781
0.874809
0.778966
0.653896
0.511245
0.441289
0.447918
0.478533
0.511153
0.540605
0.546188
0.61224
0.677499
0.741635
0.804441
0.86477
0.923359
0.977624
1.03235
1.08665
1.13876
1.18737
1.23314
1.27617
1.31177
1.31701
1.29721
1.25948
1.21205
1.15751
1.09566
1.02294
0.93189
0.814281
0.672841
0.58241
0.565451
0.583428
0.606747
0.62945
0.719679
0.790157
0.863239
0.935916
1.00799
1.07833
1.14771
1.21315
1.2786
1.34207
1.40171
1.4559
1.5031
1.5366
1.5393
1.50575
1.45445
1.39355
1.33189
1.27193
1.21401
1.15469
1.08573
0.997595
0.892663
0.817968
0.796565
0.80608
0.819085
0.830904
1.05975
1.12947
1.19936
1.26768
1.33493
1.40062
1.46413
1.52385
1.58177
1.63532
1.68206
1.71557
1.7264
1.70475
1.65387
1.57393
1.49045
1.40991
1.33999
1.2825
1.23823
1.20413
1.17257
1.13468
1.09276
1.07132
1.08384
1.11615
1.14763
1.17002
1.31443
1.3951
1.46401
1.52584
1.57822
1.62517
1.66628
1.70202
1.73145
1.75396
1.76534
1.75212
1.7076
1.63687
1.54473
1.4367
1.33792
1.25274
1.18554
1.13731
1.10813
1.09633
1.09678
1.10357
1.11497
1.14409
1.19122
1.24314
1.29668
1.35889
0.274326
0.317739
0.325461
0.325225
0.318881
0.307104
0.291195
0.272425
0.251647
0.229566
0.206518
0.182721
0.158244
0.13243
0.109315
0.0949456
0.0887172
0.0968192
0.0995043
0.0961315
0.0725836
0.0431238
0.0453064
0.0592215
0.071743
0.0804165
0.0908199
0.103864
0.115883
0.128925
0.458421
0.521086
0.530553
0.521994
0.501012
0.472973
0.440891
0.406419
0.370198
0.332564
0.293113
0.251213
0.205291
0.168099
0.156339
0.16618
0.177298
0.192706
0.200215
0.196342
0.159013
0.103337
0.0979365
0.125648
0.154642
0.183642
0.210823
0.226748
0.236163
0.250715
0.569789
0.636439
0.652683
0.644903
0.623097
0.593077
0.557681
0.51838
0.475812
0.430371
0.381739
0.328886
0.26961
0.224048
0.213799
0.22785
0.239361
0.250948
0.258907
0.256922
0.219234
0.160397
0.149242
0.17532
0.211224
0.250413
0.287772
0.312175
0.329331
0.350407
0.646014
0.708445
0.727828
0.722032
0.702129
0.673518
0.638546
0.598348
0.553508
0.504427
0.45096
0.391662
0.324334
0.274841
0.26534
0.278811
0.28749
0.294499
0.300785
0.299946
0.266949
0.212681
0.196959
0.218902
0.258105
0.303243
0.348456
0.380177
0.403168
0.429104
0.700775
0.755617
0.776041
0.772392
0.755522
0.72977
0.696761
0.657358
0.612151
0.561608
0.505723
0.442637
0.370766
0.320476
0.311483
0.322297
0.327319
0.330521
0.334615
0.33406
0.308883
0.259769
0.24104
0.258695
0.298755
0.347414
0.398453
0.436057
0.463067
0.492091
0.738214
0.785602
0.805848
0.804674
0.791535
0.769419
0.73917
0.701446
0.656939
0.606266
0.549537
0.484648
0.410949
0.362191
0.353259
0.360329
0.361617
0.36223
0.364955
0.363804
0.344231
0.301014
0.280795
0.294702
0.334008
0.384833
0.43961
0.481886
0.511722
0.54218
0.760649
0.803152
0.822124
0.824021
0.814982
0.796856
0.769758
0.734217
0.691111
0.641253
0.584943
0.519887
0.446728
0.400991
0.391577
0.394296
0.392032
0.391585
0.39185
0.389472
0.373414
0.336208
0.315287
0.326277
0.363872
0.415929
0.472573
0.518725
0.55071
0.581488
0.772001
0.806776
0.827897
0.833815
0.829058
0.814974
0.791134
0.758046
0.716853
0.668585
0.613791
0.550013
0.479657
0.437707
0.4271
0.42515
0.419648
0.418296
0.415443
0.411246
0.397132
0.364987
0.343889
0.352715
0.387954
0.440332
0.497561
0.547188
0.581011
0.611511
0.773072
0.803431
0.825339
0.836237
0.83605
0.825848
0.805151
0.774626
0.735772
0.689798
0.63752
0.576347
0.510898
0.472824
0.460262
0.453542
0.445324
0.442321
0.436279
0.429884
0.416226
0.38785
0.366888
0.373546
0.405659
0.459124
0.517375
0.567885
0.603265
0.633155
0.769243
0.796497
0.819259
0.833542
0.837777
0.831092
0.813235
0.785205
0.749123
0.706137
0.657197
0.600109
0.541166
0.506524
0.491341
0.479968
0.469845
0.463843
0.454879
0.445976
0.431545
0.405455
0.384692
0.388836
0.418342
0.473076
0.532383
0.583418
0.618818
0.648506
0.761544
0.786578
0.810424
0.827557
0.835558
0.832918
0.817611
0.791851
0.758233
0.718764
0.67397
0.622293
0.570759
0.538796
0.520518
0.504826
0.493149
0.483539
0.471762
0.460052
0.443954
0.418753
0.397514
0.398953
0.427069
0.482645
0.542947
0.5938
0.629528
0.658931
0.7501
0.774404
0.799355
0.818878
0.830059
0.831565
0.819142
0.795533
0.76464
0.728779
0.68886
0.643623
0.599662
0.569552
0.547943
0.528487
0.515212
0.501963
0.487458
0.472698
0.454114
0.428793
0.406299
0.404707
0.432267
0.488344
0.549565
0.600389
0.636073
0.665353
0.735788
0.760359
0.78647
0.808238
0.822241
0.826879
0.818145
0.796956
0.769046
0.737112
0.702726
0.664581
0.627658
0.598696
0.573882
0.551383
0.536231
0.519624
0.502515
0.484515
0.462774
0.43645
0.412292
0.407367
0.434355
0.490668
0.552723
0.603773
0.639333
0.668538
0.719227
0.744999
0.772518
0.796315
0.81272
0.819865
0.814169
0.796739
0.772111
0.744592
0.716277
0.68536
0.65458
0.626253
0.598742
0.574182
0.55645
0.53706
0.517505
0.496148
0.470891
0.442143
0.415677
0.407345
0.432699
0.489084
0.552719
0.60449
0.640151
0.669359
0.702003
0.729328
0.75826
0.783755
0.802115
0.811283
0.80867
0.794709
0.774471
0.751982
0.730043
0.706066
0.680441
0.652478
0.623094
0.597404
0.576595
0.554896
0.533066
0.508478
0.479383
0.446677
0.417096
0.404323
0.427169
0.482879
0.547745
0.600736
0.637443
0.667129
0.68501
0.714119
0.744475
0.77123
0.791096
0.801976
0.802478
0.792127
0.776834
0.759993
0.744397
0.726912
0.705481
0.677911
0.647776
0.621238
0.59755
0.57384
0.549952
0.522456
0.489363
0.45158
0.418055
0.400713
0.419708
0.47385
0.539482
0.593651
0.631706
0.662239
0.668131
0.699464
0.731435
0.759489
0.780435
0.792965
0.796333
0.790163
0.779855
0.769149
0.759866
0.748243
0.730241
0.703456
0.674042
0.646195
0.620286
0.594799
0.569102
0.539152
0.502001
0.45836
0.419415
0.397514
0.411663
0.463366
0.529266
0.584479
0.623996
0.655923
0.651647
0.685525
0.719189
0.748903
0.771044
0.785171
0.79139
0.79022
0.784906
0.780132
0.777127
0.770697
0.755676
0.730409
0.702707
0.673438
0.646043
0.619006
0.59177
0.559795
0.518801
0.469378
0.42269
0.39589
0.404235
0.452629
0.518185
0.574186
0.615103
0.648624
0.635783
0.672447
0.707932
0.739382
0.763617
0.779694
0.789064
0.792647
0.792581
0.793941
0.79721
0.79537
0.783325
0.76059
0.734424
0.704722
0.676485
0.648194
0.61972
0.585837
0.541512
0.486344
0.430452
0.395954
0.398894
0.442917
0.507276
0.563618
0.605754
0.640849
0.620798
0.660463
0.697938
0.731295
0.757789
0.776767
0.790008
0.79869
0.804528
0.812057