/*--------------------------------*- C++ -*----------------------------------*\
| =========                 |                                                 |
| \\      /  F ield         | OpenFOAM: The Open Source CFD Toolbox           |
|  \\    /   O peration     | Version:  5.0                                   |
|   \\  /    A nd           | Web:      www.OpenFOAM.org                      |
|    \\/     M anipulation  |                                                 |
\*---------------------------------------------------------------------------*/
FoamFile
{
    version     2.0;
    format      ascii;
    class       volScalarField;
    location    "650/air";
    object      nut;
}
// * * * * * * * * * * * * * * * * * * * * * * * * * * * * * * * * * * * * * //

dimensions      [0 2 -1 0 0 0 0];

internalField   nonuniform List<scalar> 
243000
(
0.000186018
0.000185274
0.000179226
0.00017156
0.000162813
0.000153699
0.000144679
0.00013608
0.000128118
0.000120989
0.000114862
0.000109911
0.000106231
0.000103448
0.000100935
9.84106e-05
9.58269e-05
9.32591e-05
9.07782e-05
8.84558e-05
8.58655e-05
8.14374e-05
7.31465e-05
8.00622e-05
9.51374e-05
0.000103569
0.000113679
0.00012389
0.000134473
0.000147878
0.000834393
0.000873627
0.000872117
0.000860698
0.000842616
0.000820144
0.000795043
0.000768633
0.000741853
0.000715623
0.00069088
0.000668343
0.000647779
0.000627309
0.000606426
0.00058592
0.000566019
0.000546893
0.000528149
0.000509299
0.000488293
0.000459096
0.000416479
0.00043796
0.000517512
0.000557146
0.000591958
0.000625335
0.000660342
0.00069823
0.000912981
0.000957269
0.000957646
0.000946202
0.000927117
0.000903147
0.000876238
0.000847746
0.000818622
0.000789863
0.000762525
0.000737379
0.000713797
0.000689461
0.000664314
0.0006398
0.000616484
0.000594666
0.000573726
0.000552563
0.00052902
0.000498824
0.000454223
0.000456854
0.000551767
0.000605726
0.000648322
0.000688591
0.000732258
0.000773787
0.000962332
0.00100778
0.00101111
0.0010012
0.000983156
0.000959839
0.000933185
0.000904558
0.000874944
0.000845434
0.000817221
0.000791174
0.000766412
0.000740224
0.000712653
0.000685463
0.000659515
0.00063535
0.000612319
0.000588911
0.000562617
0.00053088
0.000485232
0.000466759
0.000567927
0.000635692
0.000687254
0.00073375
0.000783379
0.000826653
0.000994687
0.00103924
0.00104531
0.00103739
0.00102127
0.000999627
0.000974262
0.000946524
0.000917417
0.000888117
0.000859967
0.000833962
0.000808995
0.000782073
0.000753183
0.000724266
0.000696426
0.000670434
0.000645711
0.000620453
0.000591827
0.000558648
0.000512421
0.000478181
0.000570157
0.000653987
0.000712823
0.000765459
0.000820338
0.00086561
0.00101514
0.0010586
0.00106671
0.00106093
0.00104714
0.00102769
0.00100416
0.000977883
0.000949858
0.00092135
0.00089382
0.000868409
0.000843802
0.000816822
0.000787276
0.000757294
0.000728197
0.000700857
0.000674854
0.000648139
0.000617754
0.000583409
0.000537166
0.000493666
0.000559142
0.00066428
0.000730591
0.000787268
0.000845767
0.000891867
0.00102768
0.00106867
0.00107901
0.00107547
0.00106422
0.00104721
0.00102581
0.0010013
0.000974706
0.000947355
0.000920802
0.000896316
0.00087241
0.000845792
0.000816052
0.00078549
0.000755608
0.000727332
0.000700407
0.000672556
0.000640966
0.000605785
0.000559876
0.000511026
0.000544648
0.00066859
0.000742348
0.000802568
0.000863891
0.000910067
0.00103385
0.0010712
0.0010844
0.00108334
0.00107473
0.00106026
0.00104113
0.00101857
0.000993606
0.000967648
0.000942306
0.000918943
0.000895964
0.000869954
0.000840362
0.000809593
0.000779296
0.000750438
0.000722872
0.000694142
0.000661836
0.000626159
0.000580764
0.000528845
0.000533864
0.000668992
0.000749781
0.000813688
0.000875684
0.00092232
0.0010343
0.0010688
0.00108424
0.00108611
0.00108016
0.00106825
0.00105144
0.00103091
0.00100771
0.000983299
0.000959325
0.000937213
0.000915291
0.00089004
0.000860854
0.00083018
0.000799765
0.000770642
0.000742666
0.000713254
0.000680644
0.000644774
0.000599994
0.000546376
0.000529048
0.000666221
0.000753881
0.000820439
0.000882235
0.000929491
0.00103081
0.00106301
0.0010805
0.00108513
0.0010819
0.00107231
0.00105766
0.00103918
0.00101784
0.000995083
0.000972594
0.000951811
0.000931009
0.000906602
0.000878032
0.000847711
0.000817434
0.000788308
0.000760123
0.000730202
0.000697623
0.000661829
0.000617714
0.000563775
0.000532058
0.000659829
0.000755412
0.000823745
0.000884431
0.000932346
0.00102409
0.00105462
0.00107394
0.00108117
0.00108069
0.00107356
0.00106087
0.00104419
0.0010246
0.00100357
0.000982646
0.000963253
0.000943579
0.000920086
0.0008923
0.000862554
0.000832646
0.000803716
0.000775537
0.000745255
0.000712985
0.000677478
0.000634104
0.000580606
0.000540813
0.000648528
0.000754726
0.000824191
0.000882856
0.000931667
0.00101451
0.0010441
0.00106505
0.00107486
0.00107691
0.00107233
0.00106176
0.00104671
0.00102866
0.00100924
0.000989921
0.000971924
0.000953363
0.000930855
0.000903991
0.000875016
0.000845684
0.000817135
0.000789116
0.000758667
0.000726925
0.000691883
0.000649346
0.000596734
0.000551398
0.00063691
0.000751315
0.000821575
0.000877489
0.000927533
0.00100237
0.00103178
0.00105423
0.00106663
0.00107104
0.00106882
0.00106047
0.00104723
0.00103059
0.00101258
0.000994772
0.000978146
0.000960676
0.00093921
0.00091339
0.000885359
0.000856794
0.000828799
0.000801085
0.000770638
0.000739634
0.000705234
0.000663605
0.000611963
0.000562212
0.000625696
0.000746022
0.000816757
0.000870115
0.000920742
0.00098793
0.00101791
0.00104187
0.00105666
0.00106342
0.00106344
0.00105709
0.00104577
0.00103078
0.00101406
0.000997514
0.000982192
0.000965783
0.000945406
0.000920742
0.000893814
0.000866189
0.000838919
0.000811645
0.000781477
0.00075135
0.000717672
0.000676954
0.000626348
0.000573929
0.000615126
0.000739357
0.000810797
0.000863055
0.000911675
0.000971523
0.00100261
0.00102816
0.00104518
0.00105431
0.00105639
0.00105202
0.00104236
0.00102912
0.00101398
0.000998598
0.000984288
0.000968911
0.000949677
0.000926275
0.000900595
0.00087407
0.000847684
0.000820979
0.000791625
0.000762252
0.000729315
0.000689488
0.000639963
0.000585789
0.000605611
0.000731545
0.000803712
0.000854998
0.00090062
0.000954364
0.000986105
0.00101326
0.00103239
0.00104385
0.00104787
0.00104538
0.00103736
0.00102564
0.00101215
0.000998203
0.000984892
0.000970319
0.000952255
0.000930209
0.000905909
0.000880624
0.000855279
0.000829267
0.000800949
0.000772398
0.00074026
0.000701335
0.000652906
0.000597698
0.000597695
0.000722679
0.000795472
0.000845712
0.000888007
0.000937829
0.000969363
0.000997439
0.00101852
0.00103213
0.00103803
0.00103733
0.00103091
0.00102071
0.00100872
0.000996159
0.000984012
0.000970426
0.000953372
0.000932768
0.000909958
0.000886044
0.000861869
0.000836677
0.000809519
0.000781885
0.000750617
0.00071263
0.000665293
0.000609704
0.000592028
0.000712856
0.000786252
0.000835894
0.000877047
0.000921641
0.00095344
0.000981403
0.00100375
0.00101927
0.00102704
0.00102801
0.00102314
0.00101446
0.00100395
0.000992751
0.000981725
0.000969129
0.000953395
0.000934189
0.000912946
0.000890518
0.000867607
0.000843366
0.000817455
0.000790832
0.000760519
0.000723532
0.000677287
0.000621899
0.000589297
0.00070212
0.000776255
0.000825707
0.00086635
0.000905626
0.000938073
0.000966135
0.000988388
0.00100547
0.00101506
0.00101755
0.00101422
0.00100703
0.000998006
0.000988174
0.000978272
0.00096671
0.000952264
0.000934626
0.000915053
0.000894201
0.00087262
0.000849445
0.000824873
0.000799366
0.000770101
0.00073418
0.000689054
0.000634118
0.000593682
0.000688793
0.00076573
0.000815405
0.000855905
0.000889698
0.000923109
0.000951453
0.000973699
0.000991002
0.00100218
0.00100611
0.00100426
0.000998534
0.000991011
0.000982535
0.00097377
0.000963318
0.000950238
0.000934236
0.000916413
0.000897186
0.000876986
0.000854976
0.000831863
0.000807592
0.00077949
0.000744724
0.000700783
0.000646527
0.000600253
0.000675032
0.000754934
0.000805143
0.00084567
0.000873861
0.000908467
0.000937209
0.000959558
0.000976715
0.000988547
0.000993735
0.000993297
0.000989049
0.000983006
0.000975882
0.000968294
0.000959034
0.000947404
0.000933107
0.000917076
0.000899492
0.000880708
0.000859965
0.0008385
0.000815609
0.000788813
0.000755312
0.000712609
0.000659209
0.000608378
0.000662219
0.000744194
0.00079505
0.000835643
0.000858204
0.000894134
0.000923351
0.000945883
0.000962967
0.000974827
0.000980564
0.000981392
0.000978563
0.000973981
0.000968201
0.000961831
0.000953823
0.000943722
0.000931171
0.000916915
0.00090102
0.000883698
0.000864563
0.000844944
0.00082356
0.000798212
0.000766161
0.000724717
0.000672273
0.000618574
0.000651247
0.000733885
0.000785321
0.000825922
0.000842902
0.000880169
0.000909873
0.000932619
0.000949671
0.000961639
0.000967712
0.000969005
0.000967168
0.000963957
0.000959486
0.000954339
0.000947602
0.000939048
0.00092826
0.000915812
0.000901607
0.000886006
0.000869258
0.000851503
0.000831715
0.000807939
0.00077747
0.00073737
0.00068589
0.000630267
0.00064341
0.00072464
0.000776355
0.000816744
0.000828259
0.000866699
0.000896774
0.000919669
0.000936809
0.000949052
0.000955644
0.000957524
0.000956571
0.000954276
0.00095083
0.000946623
0.00094107
0.000933997
0.000925114
0.000914678
0.00090269
0.000889358
0.000874774
0.00085885
0.000840702
0.000818581
0.000789818
0.000751266
0.000700567
0.000643489
0.000639747
0.000717225
0.000768775
0.000808587
0.000814729
0.000853939
0.00088418
0.000907232
0.000924587
0.000937136
0.000944383
0.000946994
0.000947131
0.000945947
0.000943699
0.000940661
0.000936505
0.000931082
0.000924181
0.000915877
0.000906149
0.000895044
0.000882543
0.000868429
0.000851918
0.000831432
0.000804374
0.000767318
0.000717445
0.000658714
0.000641733
0.00071238
0.000763003
0.000801805
0.000803342
0.00084275
0.000872804
0.000895816
0.000913338
0.000926262
0.000934331
0.000937955
0.000939467
0.000939773
0.000939081
0.00093765
0.000935391
0.000932118
0.000927654
0.000921901
0.000914717
0.000905979
0.00089559
0.000883261
0.000868279
0.000849235
0.000823585
0.000787831
0.000738395
0.000677692
0.000649201
0.000712047
0.000760313
0.000797263
0.000796367
0.000835086
0.00086458
0.000887276
0.00090489
0.000918395
0.000927902
0.000933137
0.000936748
0.000939344
0.000941161
0.000942444
0.000943174
0.00094311
0.000942012
0.000939522
0.000935266
0.000929021
0.000920612
0.000909737
0.000895785
0.000877554
0.000852782
0.00081777
0.000768333
0.000705084
0.000666924
0.000719291
0.000763989
0.000798087
0.000802881
0.000839645
0.000868175
0.000891047
0.000909613
0.000924595
0.000936926
0.000945518
0.000953059
0.000959843
0.000966187
0.00097241
0.000978221
0.000983064
0.000986314
0.000987328
0.000985701
0.00098114
0.000973599
0.000962938
0.000948686
0.000929969
0.00090492
0.000870203
0.000821194
0.000756239
0.000711201
0.000748364
0.00078571
0.000814299
0.000880432
0.000913139
0.000940103
0.000963328
0.00098376
0.00100091
0.00101717
0.00103131
0.00104485
0.00105707
0.00106934
0.00108232
0.00109422
0.00110379
0.00111005
0.00111259
0.00111124
0.00110603
0.00109732
0.00108529
0.00106929
0.00104917
0.0010241
0.000991736
0.00094874
0.000893193
0.000849401
0.000865244
0.000887493
0.000904553
0.00125484
0.00127216
0.001287
0.0013003
0.00131212
0.00131752
0.0013236
0.00133144
0.00133992
0.00134546
0.0013537
0.0013659
0.00137555
0.00138128
0.00138269
0.00138151
0.00137711
0.00137067
0.00136286
0.00135467
0.00134299
0.00133038
0.00131801
0.00130463
0.00128868
0.00126854
0.00125571
0.00126025
0.00126776
0.00127237
0.00022523
0.000230436
0.000225367
0.00021714
0.000207001
0.000195926
0.000184565
0.000173401
0.000162734
0.000152797
0.000143792
0.000135967
0.000129421
0.000123453
0.000117215
0.000110535
0.000103416
9.60529e-05
8.85471e-05
8.12875e-05
7.58858e-05
7.35354e-05
7.27737e-05
8.50723e-05
9.87253e-05
0.000106448
0.000117584
0.000128248
0.000139962
0.000161539
0.000984701
0.00109426
0.00103933
0.00095176
0.000858864
0.000772278
0.000696146
0.000629625
0.000570714
0.000518078
0.000471168
0.000427673
0.000381518
0.000335072
0.000299826
0.000280577
0.000272064
0.000272287
0.00027771
0.000292008
0.00031403
0.000308791
0.000288298
0.000410015
0.000551794
0.000667413
0.000738612
0.000784992
0.000750003
0.000784446
0.00165482
0.00190199
0.00187019
0.00174985
0.00160282
0.00145623
0.00132136
0.00119995
0.00109013
0.000991024
0.000901944
0.000818486
0.000728148
0.000638557
0.000572818
0.000537644
0.000522261
0.00052205
0.00053258
0.00055364
0.000574514
0.000530528
0.000458028
0.000556655
0.000769633
0.00103317
0.00124246
0.00136834
0.00133531
0.00138342
0.00220797
0.00252484
0.00253069
0.00240788
0.00223957
0.00206046
0.00188769
0.00172628
0.0015767
0.00144102
0.00131559
0.00119301
0.00106457
0.000940754
0.00085152
0.000802578
0.000779194
0.000775994
0.000787671
0.000810428
0.000819341
0.000726122
0.000587712
0.000623764
0.000873105
0.00124685
0.00160816
0.00183897
0.00184387
0.0019124
0.00265062
0.00300334
0.00304175
0.00292881
0.00275864
0.00256596
0.0023719
0.00218413
0.0020067
0.00184075
0.00168526
0.0015342
0.00137519
0.00122584
0.00111892
0.00105854
0.00102701
0.00102001
0.00103219
0.00105575
0.00105042
0.000912785
0.000710477
0.000678148
0.000921416
0.00139384
0.0018628
0.00221364
0.00227931
0.00237068
0.00299839
0.00338051
0.00343525
0.00333702
0.003176
0.0029819
0.00277822
0.00257472
0.0023773
0.00218915
0.00201275
0.00183957
0.00165849
0.00149203
0.00137191
0.00130185
0.00126238
0.00125115
0.00126367
0.00129001
0.00126897
0.00109377
0.000838028
0.000746128
0.000951883
0.00149198
0.00206743
0.00250387
0.00264306
0.00275703
0.00328009
0.00364898
0.00373353
0.00365454
0.00350855
0.00332163
0.00311591
0.00290461
0.00269543
0.0024916
0.00230031
0.0021126
0.00191724
0.00174046
0.00161056
0.00153184
0.00148509
0.00146917
0.00148167
0.0015118
0.00147478
0.00126854
0.000971165
0.000829077
0.000983229
0.0015549
0.00222439
0.00273628
0.00293312
0.00307177
0.00350261
0.00382599
0.00393441
0.00389715
0.00377081
0.00359678
0.00339407
0.00318073
0.0029655
0.00275355
0.00255041
0.00235562
0.00215471
0.00197197
0.00183516
0.00174866
0.00169515
0.00167445
0.00168652
0.00172065
0.00166741
0.00143566
0.00110668
0.000918221
0.0010249
0.00159058
0.00233897
0.00292283
0.00316513
0.0033331
0.00366686
0.0039639
0.00408283
0.00407265
0.00397485
0.0038167
0.00362036
0.00340913
0.00319275
0.00297936
0.00277082
0.00257096
0.0023714
0.00218781
0.0020459
0.00195245
0.00189283
0.00186745
0.00187916
0.00191657
0.00184656
0.00159371
0.00124071
0.00100913
0.00107049
0.00161019
0.00241805
0.00305709
0.00335728
0.0035487
0.0038016
0.00406967
0.00419379
0.00420821
0.00413736
0.00399416
0.00380382
0.00359445
0.0033815
0.0031709
0.00296516
0.00276422
0.00256618
0.00238685
0.00224256
0.00214331
0.00207839
0.00204875
0.00206111
0.0020998
0.00201209
0.00174116
0.00137055
0.00110038
0.00112399
0.00162255
0.00246852
0.00315061
0.00350687
0.00372985
0.00390981
0.00414602
0.00427509
0.0043071
0.004258
0.00414427
0.00395924
0.00375028
0.00353721
0.00333249
0.00313353
0.00293926
0.0027454
0.00256796
0.00242532
0.00232146
0.00225225
0.00221884
0.0022347
0.00227052
0.00216398
0.00187674
0.00149465
0.00119033
0.00117862
0.00163285
0.00249663
0.0032107
0.00363346
0.0038847
0.00398487
0.00419592
0.00432834
0.00437486
0.00434556
0.00425499
0.00409358
0.00388433
0.00367202
0.00346866
0.00327915
0.00309523
0.00291045
0.0027379
0.00259362
0.00248724
0.00241496
0.00237861
0.00239918
0.0024286
0.0023023
0.00200112
0.00161031
0.00127939
0.00123093
0.0016437
0.00250851
0.00325384
0.00373948
0.00401865
0.00402359
0.0042214
0.00435556
0.00441588
0.0044056
0.00433575
0.00419566
0.00400211
0.0037905
0.00358908
0.00340473
0.00323409
0.00306037
0.00289406
0.00275049
0.00264157
0.00256737
0.00252934
0.00255451
0.00257398
0.00242733
0.00211553
0.00171787
0.00136543
0.00128009
0.00165137
0.00250874
0.00327653
0.00382182
0.004132
0.00402737
0.00422053
0.00435932
0.00443379
0.00444182
0.00439037
0.00427214
0.0040918
0.00389447
0.00369714
0.00351732
0.00335741
0.00319629
0.00303724
0.00289556
0.00278577
0.00271051
0.00267291
0.0027013
0.00270661
0.00254089
0.00222036
0.00181846
0.0014479
0.00132318
0.00165349
0.00248698
0.00326152
0.00384217
0.00420408
0.00399601
0.00419418
0.0043425
0.0044318
0.00445745
0.0044228
0.00432684
0.00415807
0.00397596
0.00379384
0.00361996
0.00346899
0.00331993
0.00316863
0.00303004
0.00292146
0.00284553
0.00281167
0.00284017
0.00282789
0.00264513
0.00231646
0.00190958
0.0015271
0.00136244
0.0016503
0.00244774
0.0032167
0.00382032
0.00423671
0.00393277
0.00414618
0.00430847
0.00441314
0.00445565
0.00443735
0.00436197
0.00420915
0.00403726
0.00387352
0.00371491
0.00357277
0.00343336
0.00328984
0.00315546
0.00304875
0.0029735
0.00294668
0.00297077
0.00293956
0.00274166
0.0024052
0.00199314
0.00160096
0.00139991
0.00164204
0.00239509
0.00314856
0.00376433
0.00422894
0.00382453
0.00407988
0.00426125
0.0043815
0.00443987
0.00443762
0.00438069
0.00424714
0.00408787
0.00393959
0.0037974
0.00366984
0.00353869
0.00340259
0.00327338
0.00316926
0.00309582
0.0030757
0.00309106
0.00304166
0.00283107
0.00248769
0.00207126
0.00166952
0.0014374
0.00163354
0.00233315
0.0030639
0.00368195
0.00417538
0.00368433
0.00398224
0.00420489
0.00434156
0.0044142
0.00442723
0.00438694
0.00427487
0.00413075
0.00399731
0.00387235
0.00376132
0.00363743
0.0035089
0.00338433
0.0032839
0.00321386
0.00319485
0.00319811
0.0031318
0.0029121
0.00256425
0.00214806
0.00173568
0.00147812
0.00162543
0.0022667
0.00296952
0.00358249
0.00409508
0.00352625
0.0038641
0.00412515
0.0042988
0.00438359
0.00441053
0.00438524
0.0042959
0.00416847
0.00405034
0.00394925
0.00384627
0.00373145
0.00360774
0.00348893
0.00339186
0.00332454
0.00329843
0.00328596
0.00320425
0.00298073
0.00263352
0.00221965
0.00180145
0.00151934
0.00162755
0.00220097
0.00287141
0.00347407
0.00399821
0.00336386
0.00373723
0.00403045
0.00423952
0.00435425
0.00439291
0.00438092
0.00431302
0.00420432
0.00411104
0.00401904
0.00392428
0.00381525
0.00369903
0.00358388
0.00348834
0.00341658
0.00337656
0.00334462
0.00324915
0.00302889
0.00269091
0.00228379
0.00186977
0.00156437
0.00164174
0.00214164
0.00277564
0.00336405
0.00389207
0.00320784
0.00360947
0.00392928
0.00416886
0.00431839
0.00438198
0.0043807
0.00432883
0.00424661
0.00416503
0.00408251
0.00399381
0.00389012
0.00377479
0.00365987
0.00355904
0.00347179
0.00341304
0.00335907
0.00325289
0.00304401
0.00272812
0.00233562
0.00193315
0.00161781
0.00166262
0.00209411
0.00268771
0.00325809
0.00378357
0.00306654
0.00348715
0.0038282
0.00409333
0.00427306
0.00436758
0.00438524
0.00435016
0.00428157
0.00420948
0.00413082
0.00404217
0.00393638
0.00381704
0.00369293
0.00357487
0.00346602
0.00338492
0.00330975
0.00319952
0.00301142
0.00273244
0.0023683
0.00198399
0.00167378
0.00168391
0.00206552
0.00261371
0.00316018
0.00367714
0.00294467
0.00337624
0.0037335
0.004015
0.00420328
0.00430813
0.00436506
0.00434878
0.00429432
0.00422447
0.0041405
0.00404103
0.00392123
0.00378538
0.00364163
0.00349916
0.0033711
0.00326995
0.00318089
0.00307641
0.0029192
0.00269058
0.00237434
0.00201698
0.00172343
0.00172406
0.00206687
0.00256674
0.00308106
0.00357358
0.00284563
0.00327664
0.00362016
0.00388784
0.00408483
0.00422514
0.0042928
0.00427831
0.00422474
0.00414897
0.00405262
0.00393456
0.00379274
0.00363495
0.00346699
0.00330781
0.00317149
0.00306393
0.00297603
0.00288759
0.00277004
0.00260043
0.00234955
0.0020294
0.00176056
0.00177191
0.00208094
0.00255274
0.00304167
0.0035042
0.00274782
0.00313709
0.00346035
0.00373047
0.00393503
0.004069
0.00411694
0.00408861
0.00402166
0.00392947
0.00381526
0.00368061
0.00352459
0.00335691
0.00318394
0.00303107
0.00290882
0.00281473
0.0027413
0.00267474
0.00259732
0.00248349
0.00230117
0.00203105
0.0017833
0.00179262
0.0020826
0.00251284
0.00296397
0.00338475
0.00263916
0.00298631
0.00327593
0.00350455
0.00367472
0.00377156
0.00378337
0.00373804
0.00366085
0.0035614
0.0034449
0.00331317
0.00317304
0.00303003
0.00289098
0.00277482
0.00268611
0.00262015
0.002566
0.00251983
0.00246823
0.00239155
0.00226099
0.00204802
0.00180866
0.00178228
0.00205565
0.00240402
0.0027999
0.00316678
0.00247069
0.00274742
0.00297091
0.00313692
0.0032547
0.00331991
0.00331664
0.00327773
0.00321955
0.00314714
0.00306433
0.00297413
0.00288417
0.00279787
0.00271826
0.00265323
0.00260324
0.00256227
0.00252435
0.00248777
0.00244474
0.00238293
0.00228091
0.00211267
0.00188877
0.00177955
0.00195728
0.00222721
0.00253922
0.00283402
0.00225825
0.00245892
0.0026144
0.00273722
0.00283202
0.00289631
0.00291757
0.00291644
0.0029045
0.00288129
0.00284923
0.00281272
0.00277649
0.00274122
0.00270297
0.00266601
0.00263471
0.00260333
0.00257266
0.00254102
0.00250458
0.00245566
0.00237876
0.00225297
0.00207219
0.00191472
0.00196159
0.00213046
0.0023287
0.00252575
0.00231021
0.00243181
0.0025347
0.00262319
0.00269821
0.00275677
0.00279071
0.00281049
0.00282238
0.00282319
0.0028157
0.0027999
0.00277895
0.00275343
0.00272692
0.00269885
0.00267298
0.00264875
0.00262586
0.00260415
0.0025811
0.00255205
0.00250692
0.00243177
0.00232605
0.00222191
0.00222584
0.00231161
0.00241404
0.00251376
0.00258505
0.00263549
0.00267706
0.00271443
0.00274726
0.0027721
0.00278595
0.00279382
0.00279612
0.00278962
0.00278133
0.00277288
0.00275754
0.0027357
0.00271077
0.00268871
0.00267176
0.00266064
0.00265319
0.0026484
0.0026436
0.00263783
0.00262691
0.00260486
0.00257363
0.00254827
0.00255245
0.00258816
0.00262482
0.0026544
0.000252418
0.000261086
0.000255433
0.000246712
0.000235829
0.000223698
0.000211028
0.000198337
0.000185933
0.000174038
0.000162742
0.000152157
0.000142283
0.000132264
0.000121729
0.000111475
0.000101599
9.33764e-05
8.56622e-05
7.87957e-05
6.44993e-05
7.01141e-05
7.55547e-05
9.02826e-05
0.000105191
0.000113156
0.000123816
0.000132168
0.000148776
0.000172622
0.00122884
0.001404
0.0013756
0.00127178
0.0011493
0.00103171
0.000926311
0.000833097
0.000749109
0.000671821
0.000598449
0.000526438
0.000446927
0.000378181
0.000349702
0.000364127
0.000395276
0.000435458
0.000463939
0.000461689
0.000432014
0.000367508
0.000315716
0.000489266
0.000691303
0.000857984
0.000980263
0.00100385
0.000871524
0.000825574
0.00208051
0.00244757
0.00248286
0.00235947
0.00217828
0.00198484
0.00179918
0.00162681
0.00146607
0.00131482
0.00116965
0.00102436
0.000864477
0.000730684
0.000680918
0.000709031
0.00076147
0.000823493
0.000866953
0.000886081
0.000859942
0.000723236
0.000599898
0.000818971
0.00114739
0.00145402
0.00167845
0.00172959
0.0015868
0.00153725
0.00278559
0.00325412
0.00334555
0.00323418
0.0030367
0.00280622
0.00257106
0.00234224
0.00212174
0.00191028
0.00170628
0.00149664
0.00126473
0.00108345
0.00102183
0.00105826
0.00112183
0.00119375
0.00124918
0.00128853
0.00124903
0.0010571
0.000886894
0.00107194
0.00145717
0.00189472
0.00222632
0.00233529
0.00223047
0.00220429
0.00338189
0.00388567
0.00402075
0.00392841
0.00373364
0.00348787
0.00322365
0.00295619
0.00269132
0.00243429
0.00218117
0.00191692
0.00163475
0.00142333
0.00135691
0.00139798
0.00146659
0.00154419
0.00161388
0.00167253
0.00161429
0.00138533
0.00117931
0.0013172
0.00170826
0.00222693
0.00266244
0.00285264
0.00280624
0.00281044
0.00386947
0.00440176
0.00455833
0.00448467
0.0043009
0.00405214
0.0037715
0.00347806
0.00318107
0.0028893
0.00259597
0.00229409
0.00197741
0.00175121
0.00168408
0.00172647
0.00179531
0.00187655
0.00196546
0.00203271
0.00195885
0.00170646
0.00147432
0.00156787
0.00193969
0.00251347
0.00301337
0.00329224
0.00331553
0.00335059
0.00428974
0.00480767
0.00498772
0.00493351
0.00476394
0.00452034
0.00423089
0.00392045
0.00360111
0.00328476
0.00296162
0.00263418
0.00230013
0.0020701
0.00200386
0.00204406
0.00210904
0.00219278
0.00230232
0.00236817
0.00228067
0.00201431
0.00176299
0.00181705
0.00215754
0.00275884
0.00332554
0.00365535
0.00375492
0.00381818
0.00464395
0.00509836
0.00529901
0.00529308
0.0051421
0.00490823
0.00461574
0.00429445
0.00396087
0.00362833
0.00328769
0.00294293
0.00260655
0.00238195
0.00231647
0.00235101
0.00240896
0.00249502
0.0026207
0.00267754
0.00257685
0.00230235
0.00203698
0.00205502
0.00235659
0.00296569
0.00359205
0.00398121
0.00411946
0.00421498
0.00492797
0.00535132
0.00555438
0.00557138
0.00545084
0.00522825
0.00493696
0.0046091
0.00426811
0.00392763
0.00358212
0.00322888
0.00289968
0.00268815
0.00262147
0.00264698
0.00269652
0.00278541
0.00291796
0.00295948
0.002845
0.00256518
0.00228847
0.00227288
0.00253297
0.00313908
0.00381495
0.0042609
0.00444313
0.00457572
0.00519178
0.00557201
0.00576953
0.00580639
0.00570875
0.00549804
0.0052072
0.00487114
0.00452884
0.00418944
0.00384721
0.00350011
0.00318162
0.00298662
0.00291777
0.00293203
0.00297242
0.00306581
0.00319183
0.00321329
0.00308343
0.00279866
0.0025109
0.00246461
0.0026875
0.0032833
0.00399958
0.00449407
0.00473908
0.00490775
0.00542558
0.0057595
0.00595077
0.00599782
0.00591721
0.00573734
0.0054453
0.00510335
0.00475514
0.00442073
0.00408826
0.00375778
0.00345817
0.00327548
0.00320444
0.00320634
0.00323729
0.0033326
0.00344013
0.00343832
0.00329068
0.00299988
0.00270088
0.00262627
0.00281994
0.00340225
0.00415071
0.00470392
0.00500808
0.00521235
0.00561554
0.00591446
0.00609808
0.00615111
0.00608592
0.00592726
0.0056599
0.00531262
0.00496004
0.00462788
0.00431134
0.0040042
0.00373029
0.00355562
0.00348113
0.00347017
0.00349189
0.0035836
0.00366372
0.00363431
0.00346546
0.00316799
0.0028571
0.00275538
0.0029278
0.00349764
0.00427014
0.00488415
0.0052503
0.00549012
0.00575757
0.00603501
0.00621076
0.00627067
0.00622054
0.00608023
0.00583506
0.00550602
0.00514856
0.00482207
0.00452192
0.00424169
0.00399392
0.0038286
0.00374639
0.00372375
0.00373697
0.00381679
0.00386267
0.00380133
0.00360682
0.00330183
0.00298211
0.00285097
0.0030082
0.00357327
0.00437185
0.00503796
0.00546613
0.00574076
0.00585203
0.00611844
0.00629195
0.00636072
0.00632559
0.00620127
0.00597941
0.00566811
0.00532575
0.0050066
0.00472409
0.0044714
0.00424866
0.00409236
0.0040013
0.00396732
0.00397285
0.0040297
0.00403545
0.00393926
0.00371465
0.00340127
0.00307675
0.00291377
0.00305861
0.00363208
0.00445216
0.00516686
0.0056545
0.0059608
0.00590252
0.00616849
0.00634627
0.00642569
0.00640546
0.00629592
0.00609992
0.00580146
0.00548434
0.0051839
0.00492049
0.00469422
0.00449434
0.00434554
0.00424584
0.00420016
0.00419443
0.00421717
0.00417985
0.00404755
0.00379192
0.00346585
0.00313787
0.00294527
0.00308108
0.00366012
0.00449212
0.00524386
0.00578068
0.00612708
0.00590885
0.00619055
0.00638056
0.00647071
0.00646497
0.00637104
0.00619888
0.00592158
0.00562808
0.00535625
0.00511299
0.00491118
0.00473108
0.0045885
0.00448004
0.00441984
0.00439459
0.00437275
0.00429199
0.0041245
0.00384061
0.00349737
0.00316613
0.00295091
0.00307906
0.00363912
0.00447639
0.00526251
0.00584996
0.00624188
0.00586932
0.00617983
0.00639776
0.00650198
0.00650952
0.00643196
0.0062813
0.00603185
0.0057633
0.00552483
0.00530249
0.00512239
0.0049584
0.00481099
0.00469777
0.00462025
0.00456322
0.00448944
0.00436598
0.00416663
0.00386103
0.00349909
0.00315509
0.00293571
0.00305568
0.00358489
0.00442208
0.00523763
0.00587079
0.00630857
0.00578939
0.00613932
0.00638955
0.00652311
0.00654468
0.00648347
0.00635246
0.00613599
0.00589983
0.00568642
0.00548835
0.00532496
0.00516379
0.00501909
0.00489157
0.00478738
0.00468484
0.00455718
0.00439385
0.0041685
0.00385145
0.00347592
0.00311748
0.00289605
0.00300553
0.00350588
0.00434376
0.00518244
0.00585064
0.00633246
0.0056762
0.00606879
0.00635465
0.00652307
0.00657308
0.00652937
0.00641674
0.0062358
0.00603537
0.00584256
0.00566544
0.00550679
0.00535047
0.00519568
0.00504576
0.00490075
0.00474086
0.00456327
0.00436634
0.00412329
0.00380797
0.00342934
0.0030632
0.00283865
0.00293634
0.00341592
0.0042518
0.0051006
0.00579775
0.00632154
0.00553979
0.00597751
0.00630191
0.0065035
0.00658428
0.0065698
0.00647667
0.00632956
0.00615826
0.00598815
0.00581756
0.00565895
0.00549363
0.00531922
0.00513276
0.00493396
0.00471502
0.0044958
0.00427509
0.00402481
0.00372514
0.00335952
0.00299157
0.00277111
0.00287656
0.00335522
0.00414718
0.00499752
0.00571762
0.00627891
0.00538965
0.00587108
0.00623315
0.0064673
0.0065765
0.0065904
0.00653962
0.00641824
0.00625185
0.00609212
0.00592515
0.00575212
0.00556516
0.00535503
0.00512023
0.00486255
0.00459655
0.00434851
0.00411583
0.0038715
0.00359939
0.00326867
0.00290938
0.00269062
0.00281209
0.00331601
0.00402928
0.00486753
0.00560422
0.00620288
0.00523387
0.0057546
0.00614959
0.00641317
0.0065425
0.00656656
0.00654384
0.00643523
0.0062829
0.00612413
0.00595068
0.00575186
0.00552573
0.00526973
0.00497989
0.0046765
0.00438636
0.00412688
0.00389673
0.00367236
0.00343873
0.00315949
0.00282657
0.00260222
0.00272605
0.00327313
0.00395403
0.0047322
0.00545157
0.0060693
0.00508318
0.00562592
0.00601239
0.00625089
0.00639059
0.00646699
0.00645833
0.00634879
0.00619605
0.00602673
0.00583574
0.00561038
0.00534424
0.00504773
0.00471631
0.00439336
0.00410696
0.00385792
0.00364529
0.00345239
0.00326338
0.00304305
0.00275773
0.00252066
0.00261831
0.00320362
0.00387293
0.00463597
0.00533695
0.00593819
0.00487402
0.00536199
0.00571755
0.00598393
0.00616353
0.00624766
0.00622261
0.00610234
0.00594063
0.00575746
0.00554986
0.00530601
0.00502242
0.00471024
0.00437301
0.00406532
0.00381054
0.00359185
0.00340739
0.00325109
0.00311045
0.00294675
0.00271559
0.00246792
0.00251216
0.00308889
0.00370821
0.00444321
0.00511389
0.00569075
0.00453623
0.00499356
0.0053539
0.00560972
0.00577104
0.00583712
0.00578597
0.00565844
0.00549588
0.00531356
0.00510951
0.00487416
0.00460813
0.00432413
0.00403015
0.00377014
0.00356309
0.00338326
0.00323836
0.00312542
0.00302261
0.00289911
0.00271416
0.00246933
0.00242383
0.00287577
0.00345283
0.00407706
0.0046931
0.00523268
0.00412125
0.00452134
0.00482017
0.00503993
0.00516964
0.00521539
0.00516195
0.00505351
0.00491975
0.00477077
0.00460481
0.00441502
0.00420534
0.00398783
0.00376764
0.00356824
0.00341262
0.00327859
0.00317282
0.003087
0.00300698
0.00291011
0.00276176
0.00254223
0.00240188
0.00263734
0.0031205
0.00361616
0.00413412
0.0046012
0.00357113
0.00391222
0.00415476
0.00433442
0.00445183
0.00450949
0.00449453
0.00443979
0.00436618
0.00427866
0.00417565
0.00405319