/*--------------------------------*- C++ -*----------------------------------*\
| =========                 |                                                 |
| \\      /  F ield         | OpenFOAM: The Open Source CFD Toolbox           |
|  \\    /   O peration     | Version:  5.0                                   |
|   \\  /    A nd           | Web:      www.OpenFOAM.org                      |
|    \\/     M anipulation  |                                                 |
\*---------------------------------------------------------------------------*/
FoamFile
{
    version     2.0;
    format      ascii;
    class       volScalarField;
    location    "1450/porous";
    object      T;
}
// * * * * * * * * * * * * * * * * * * * * * * * * * * * * * * * * * * * * * //

dimensions      [0 0 0 1 0 0 0];

internalField   nonuniform List<scalar> 
36000
(
400
400
400
400
399.999
399.586
399.211
398.859
398.525
398.202
397.888
397.581
397.279
396.981
396.687
396.396
396.109
395.824
395.542
395.263
394.985
394.708
394.432
394.156
393.879
393.603
393.329
393.056
392.787
392.521
392.26
392.006
391.76
391.527
391.312
391.833
392.186
392.455
392.674
392.859
400
400
400
400
399.999
399.635
399.305
398.998
398.708
398.431
398.164
397.905
397.652
397.404
397.161
396.923
396.688
396.456
396.228
396.003
395.779
395.558
395.338
395.118
394.898
394.678
394.461
394.245
394.032
393.823
393.618
393.418
393.225
393.041
392.868
393.211
393.452
393.638
393.787
393.918
400
400
400
400
399.999
399.643
399.321
399.023
398.744
398.479
398.225
397.98
397.743
397.513
397.288
397.069
396.854
396.644
396.437
396.234
396.034
395.837
395.641
395.446
395.251
395.057
394.866
394.676
394.49
394.308
394.13
393.957
393.792
393.634
393.486
393.802
394.029
394.203
394.344
394.465
400
400
400
400
399.999
399.642
399.321
399.024
398.746
398.483
398.232
397.99
397.756
397.53
397.31
397.096
396.887
396.682
396.482
396.286
396.094
395.904
395.716
395.529
395.342
395.157
394.974
394.793
394.616
394.443
394.274
394.111
393.955
393.807
393.668
393.979
394.204
394.377
394.518
394.638
400
400
400
400
399.999
399.642
399.321
399.025
398.747
398.484
398.233
397.992
397.759
397.533
397.315
397.102
396.894
396.692
396.494
396.3
396.11
395.923
395.737
395.552
395.368
395.185
395.005
394.827
394.652
394.482
394.317
394.157
394.004
393.86
393.724
394.033
394.257
394.431
394.572
394.692
400
400
400
400
399.999
399.642
399.321
399.024
398.746
398.483
398.231
397.99
397.757
397.532
397.313
397.1
396.893
396.691
396.493
396.3
396.111
395.925
395.74
395.555
395.371
395.189
395.01
394.833
394.659
394.489
394.325
394.166
394.015
393.871
393.736
394.045
394.269
394.442
394.584
394.704
400
400
400
400
399.999
399.642
399.321
399.025
398.747
398.484
398.233
397.991
397.759
397.534
397.315
397.103
396.896
396.694
396.497
396.305
396.116
395.93
395.745
395.56
395.377
395.195
395.015
394.839
394.665
394.496
394.332
394.174
394.022
393.878
393.743
394.052
394.276
394.45
394.591
394.711
400
400
400
400
399.999
399.642
399.321
399.025
398.748
398.485
398.234
397.992
397.76
397.535
397.317
397.104
396.897
396.696
396.499
396.307
396.119
395.933
395.748
395.563
395.379
395.198
395.018
394.842
394.669
394.499
394.335
394.177
394.025
393.882
393.747
394.055
394.279
394.452
394.594
394.714
400
400
400
400
399.999
399.643
399.322
399.027
398.75
398.487
398.236
397.996
397.764
397.539
397.321
397.109
396.903
396.702
396.506
396.314
396.126
395.939
395.754
395.57
395.386
395.205
395.025
394.849
394.676
394.507
394.343
394.184
394.033
393.889
393.753
394.062
394.286
394.459
394.6
394.72
400
400
400
400
399.999
399.643
399.323
399.028
398.752
398.49
398.239
397.999
397.767
397.543
397.325
397.114
396.908
396.708
396.512
396.32
396.131
395.944
395.759
395.575
395.392
395.21
395.031
394.855
394.682
394.513
394.349
394.19
394.038
393.894
393.759
394.067
394.29
394.464
394.605
394.725
400
400
400
400
399.999
399.644
399.325
399.03
398.755
398.493
398.243
398.003
397.772
397.548
397.331
397.12
396.915
396.715
396.519
396.327
396.137
395.951
395.766
395.582
395.399
395.218
395.039
394.863
394.69
394.521
394.357
394.198
394.046
393.902
393.766
394.074
394.298
394.471
394.612
394.731
400
400
400
400
399.999
399.644
399.326
399.032
398.757
398.496
398.246
398.006
397.775
397.552
397.335
397.125
396.92
396.721
396.524
396.331
396.14
395.953
395.769
395.586
395.403
395.223
395.044
394.868
394.695
394.526
394.362
394.204
394.051
393.906
393.77
394.079
394.302
394.475
394.616
394.736
400
400
400
400
399.999
399.645
399.328
399.035
398.76
398.499
398.25
398.01
397.779
397.556
397.34
397.13
396.925
396.725
396.528
396.333
396.142
395.955
395.771
395.588
395.407
395.227
395.048
394.873
394.7
394.531
394.367
394.208
394.056
393.91
393.774
394.082
394.305
394.478
394.62
394.739
400
400
400
400
399.999
399.646
399.329
399.037
398.762
398.502
398.252
398.013
397.781
397.558
397.342
397.132
396.927
396.727
396.529
396.334
396.142
395.954
395.77
395.588
395.408
395.228
395.051
394.875
394.703
394.534
394.37
394.211
394.057
393.911
393.774
394.083
394.306
394.479
394.62
394.74
400
400
400
400
399.999
399.647
399.33
399.038
398.764
398.504
398.255
398.015
397.783
397.56
397.343
397.133
396.928
396.727
396.529
396.334
396.142
395.954
395.77
395.589
395.409
395.23
395.053
394.877
394.705
394.536
394.372
394.212
394.059
393.912
393.774
394.083
394.306
394.479
394.621
394.74
400
400
400
400
399.999
399.649
399.333
399.041
398.767
398.507
398.257
398.017
397.785
397.561
397.344
397.133
396.929
396.728
396.529
396.334
396.142
395.955
395.771
395.59
395.41
395.232
395.055
394.88
394.707
394.538
394.374
394.214
394.059
393.911
393.771
394.08
394.304
394.478
394.619
394.739
400
400
400
400
399.999
399.649
399.334
399.043
398.769
398.508
398.258
398.018
397.785
397.561
397.343
397.132
396.927
396.727
396.529
396.334
396.142
395.955
395.772
395.591
395.411
395.233
395.056
394.881
394.708
394.539
394.374
394.213
394.058
393.909
393.768
394.078
394.302
394.476
394.618
394.737
400
400
400
400
399.999
399.65
399.335
399.044
398.77
398.51
398.259
398.018
397.786
397.561
397.342
397.131
396.926
396.726
396.529
396.334
396.144
395.957
395.774
395.592
395.412
395.234
395.057
394.882
394.709
394.539
394.373
394.212
394.056
393.907
393.765
394.075
394.3
394.474
394.615
394.735
400
400
400
400
399.999
399.65
399.336
399.045
398.771
398.51
398.259
398.018
397.785
397.559
397.341
397.129
396.923
396.723
396.527
396.334
396.144
395.957
395.774
395.592
395.411
395.232
395.055
394.879
394.706
394.536
394.369
394.207
394.051
393.9
393.758
394.069
394.294
394.468
394.61
394.73
400
400
400
400
399.999
399.651
399.336
399.045
398.771
398.51
398.26
398.018
397.785
397.559
397.34
397.127
396.921
396.721
396.526
396.333
396.144
395.958
395.773
395.59
395.409
395.229
395.052
394.876
394.702
394.531
394.364
394.201
394.044
393.893
393.751
394.063
394.288
394.462
394.604
394.725
400
400
400
400
399.999
399.651
399.337
399.046
398.772
398.51
398.259
398.017
397.784
397.557
397.338
397.125
396.919
396.719
396.523
396.331
396.142
395.955
395.769
395.585
395.403
395.223
395.045
394.869
394.695
394.523
394.356
394.192
394.035
393.884
393.74
394.052
394.278
394.453
394.596
394.716
400
400
400
400
399.999
399.651
399.337
399.046
398.772
398.511
398.26
398.018
397.784
397.557
397.337
397.124
396.918
396.718
396.523
396.331
396.141
395.953
395.767
395.582
395.4
395.219
395.041
394.864
394.689
394.518
394.349
394.186
394.027
393.876
393.732
394.045
394.272
394.447
394.589
394.71
400
400
400
400
399.999
399.651
399.338
399.047
398.772
398.511
398.259
398.017
397.783
397.556
397.336
397.123
396.916
396.716
396.52
396.328
396.138
395.949
395.763
395.577
395.394
395.213
395.034
394.857
394.682
394.51
394.342
394.177
394.018
393.867
393.723
394.036
394.263
394.439
394.582
394.703
400
400
400
400
399.999
399.652
399.338
399.048
398.773
398.512
398.26
398.018
397.784
397.557
397.337
397.124
396.917
396.717
396.521
396.328
396.138
395.949
395.761
395.576
395.393
395.211
395.032
394.855
394.68
394.507
394.338
394.174
394.014
393.862
393.718
394.032
394.259
394.435
394.578
394.699
400
400
400
400
399.999
399.652
399.339
399.048
398.774
398.512
398.26
398.018
397.783
397.556
397.336
397.123
396.916
396.715
396.519
396.326
396.134
395.945
395.757
395.572
395.388
395.206
395.027
394.849
394.674
394.501
394.332
394.166
394.007
393.854
393.709
394.024
394.251
394.427
394.57
394.692
400
400
400
400
399.999
399.653
399.34
399.05
398.776
398.514
398.263
398.02
397.785
397.558
397.338
397.124
396.917
396.716
396.519
396.325
396.133
395.943
395.755
395.569
395.385
395.202
395.022
394.844
394.668
394.494
394.324
394.158
393.997
393.843
393.697
394.012
394.239
394.415
394.558
394.68
400
400
400
400
399.999
399.653
399.34
399.049
398.775
398.512
398.261
398.017
397.782
397.554
397.332
397.117
396.909
396.706
396.507
396.31
396.116
395.924
395.734
395.545
395.359
395.174
394.991
394.81
394.632
394.456
394.283
394.113
393.949
393.791
393.642
393.958
394.186
394.362
394.505
394.626
400
400
400
400
399.999
399.654
399.34
399.048
398.772
398.507
398.253
398.006
397.767
397.535
397.309
397.089
396.874
396.665
396.459
396.256
396.055
395.856
395.658
395.462
395.268
395.075
394.884
394.694
394.507
394.322
394.14
393.961
393.787
393.619
393.46
393.782
394.012
394.189
394.331
394.453
400
400
400
400
399.999
399.647
399.325
399.023
398.735
398.458
398.19
397.929
397.674
397.424
397.18
396.94
396.706
396.475
396.248
396.022
395.798
395.575
395.354
395.134
394.914
394.696
394.48
394.264
394.051
393.839
393.63
393.424
393.222
393.028
392.842
393.191
393.436
393.624
393.774
393.907
400
400
400
400
399.999
399.599
399.232
398.884
398.551
398.229
397.913
397.604
397.299
396.999
396.703
396.411
396.124
395.841
395.56
395.281
395.002
394.724
394.448
394.172
393.897
393.623
393.35
393.079
392.809
392.541
392.276
392.014
391.758
391.51
391.278
391.807
392.165
392.436
392.657
392.844
400
400
400
400
399.999
399.78
399.531
399.262
398.984
398.7
398.414
398.128
397.842
397.557
397.273
396.991
396.71
396.431
396.153
395.877
395.602
395.328
395.054
394.781
394.507
394.233
393.96
393.689
393.419
393.153
392.89
392.632
392.381
392.14
391.912
392.159
392.394
392.605
392.791
392.953
400
400
400
400
400
399.812
399.601
399.376
399.144
398.908
398.672
398.436
398.202
397.97
397.739
397.511
397.285
397.062
396.84
396.62
396.402
396.186
395.97
395.755
395.54
395.326
395.113
394.901
394.691
394.483
394.279
394.078
393.883
393.694
393.513
393.627
393.748
393.866
393.972
394.073
400
400
400
400
400
399.816
399.612
399.395
399.173
398.95
398.726
398.505
398.287
398.071
397.858
397.649
397.443
397.24
397.04
396.842
396.647
396.455
396.264
396.073
395.884
395.695
395.508
395.322
395.139
394.958
394.781
394.607
394.439
394.276
394.121
394.223
394.332
394.438
394.535
394.627
400
400
400
400
400
399.816
399.612
399.396
399.175
398.953
398.732
398.513
398.298
398.086
397.878
397.674
397.473
397.276
397.082
396.891
396.703
396.518
396.334
396.152
395.97
395.79
395.611
395.434
395.26
395.088
394.92
394.756
394.597
394.444
394.298
394.399
394.507
394.611
394.709
394.8
400
400
400
400
400
399.816
399.612
399.396
399.176
398.954
398.733
398.515
398.301
398.09
397.883
397.68
397.48
397.285
397.092
396.904
396.718
396.535
396.354
396.174
395.995
395.817
395.641
395.467
395.295
395.126
394.961
394.8
394.645
394.495
394.352
394.453
394.56
394.665
394.763
394.854
400
400
400
400
400
399.816
399.611
399.395
399.174
398.952
398.731
398.513
398.298
398.087
397.88
397.677
397.478
397.283
397.091
396.903
396.718
396.536
396.355
396.176
395.997
395.82
395.645
395.471
395.3
395.132
394.968
394.808
394.653
394.505
394.363
394.463
394.571
394.676
394.774
394.865
400
400
400
400
400
399.816
399.611
399.395
399.174
398.952
398.732
398.514
398.299
398.088
397.882
397.679
397.48
397.285
397.094
396.906
396.721
396.54
396.359
396.18
396.002
395.825
395.65
395.476
395.306
395.138
394.974
394.815
394.66
394.512
394.37
394.471
394.578
394.683
394.781
394.873
400
400
400
400
400
399.816
399.611
399.395
399.174
398.952
398.732
398.513
398.299
398.088
397.882
397.679
397.48
397.286
397.094
396.907
396.723
396.541
396.361
396.181
396.003
395.826
395.651
395.478
395.308
395.14
394.976
394.817
394.662
394.514
394.372
394.473
394.581
394.685
394.784
394.875
400
400
400
400
400
399.816
399.612
399.396
399.176
398.954
398.733
398.516
398.302
398.091
397.885
397.683
397.485
397.29
397.1
396.912
396.728
396.547
396.366
396.187
396.009
395.832
395.657
395.485
395.314
395.147
394.983
394.824
394.669
394.521
394.379
394.479
394.587
394.692
394.79
394.881
400
400
400
400
400
399.816
399.612
399.397
399.177
398.955
398.735
398.517
398.304
398.094
397.888
397.686
397.488
397.294
397.104
396.917
396.732
396.551
396.37
396.191
396.013
395.837
395.662
395.489
395.319
395.151
394.988
394.828
394.674
394.525
394.383
394.484
394.591
394.696
394.794
394.885
400
400
400
400
400
399.817
399.613
399.398
399.178
398.957
398.738
398.521
398.307
398.098
397.892
397.691
397.494
397.3
397.11
396.923
396.738
396.556
396.376
396.197
396.02
395.843
395.669
395.496
395.326
395.159
394.995
394.836
394.681
394.532
394.39
394.491
394.598
394.703
394.801
394.892
400
400
400
400
400
399.817
399.613
399.399
399.18
398.959
398.74
398.523
398.31
398.1
397.895
397.694
397.497
397.304
397.114
396.926
396.741
396.559
396.379
396.2
396.023
395.847
395.673
395.5
395.33
395.163
395
394.84
394.686
394.537
394.394
394.495
394.602
394.707
394.805
394.896
400
400
400
400
400
399.817
399.615
399.401
399.182
398.961
398.742
398.526
398.313
398.104
397.899
397.698
397.501
397.308
397.118
396.929
396.744
396.561
396.381
396.203
396.026
395.85
395.676
395.504
395.335
395.168
395.004
394.845
394.69
394.541
394.398
394.498
394.606
394.71
394.808
394.899
400
400
400
400
400
399.818
399.615
399.402
399.183
398.963
398.744
398.528
398.315
398.105
397.901
397.7
397.503
397.31
397.119
396.93
396.744
396.561
396.381
396.203
396.026
395.851
395.678
395.506
395.336
395.17
395.006
394.847
394.692
394.542
394.398
394.499
394.606
394.711
394.809
394.9
400
400
400
400
400
399.818
399.616
399.403
399.184
398.965
398.746
398.529
398.316
398.107
397.902
397.701
397.504
397.31
397.119
396.93
396.744
396.561
396.381
396.203
396.027
395.852
395.679
395.508
395.338
395.172
395.008
394.848
394.693
394.543
394.399
394.5
394.607
394.712
394.81
394.901
400
400
400
400
400
399.819
399.618
399.405
399.187
398.967
398.748
398.532
398.318
398.109
397.903
397.702
397.505
397.311
397.12
396.931
396.745
396.561
396.381
396.204
396.028
395.854
395.681
395.51
395.34
395.174
395.01
394.85
394.694
394.543
394.397
394.498
394.605
394.71
394.808
394.899
400
400
400
400
400
399.819
399.618
399.406
399.188
398.968
398.749
398.532
398.319
398.109
397.903
397.701
397.504
397.31
397.119
396.93
396.745
396.562
396.382
396.204
396.029
395.855
395.682
395.511
395.341
395.174
395.01
394.85
394.693
394.542
394.396
394.496
394.604
394.709
394.807
394.898
400
400
400
400
400
399.82
399.619
399.407
399.189
398.969
398.75
398.533
398.319
398.109
397.903
397.701
397.504
397.31
397.119
396.931
396.745
396.563
396.383
396.206
396.03
395.856
395.683
395.512
395.342
395.175
395.01
394.849
394.692
394.54
394.394
394.494
394.602
394.707
394.805
394.896
400
400
400
400
400
399.82
399.619
399.407
399.189
398.97
398.75
398.533
398.319
398.108
397.902
397.7
397.502
397.308
397.118
396.93
396.745
396.563
396.383
396.206
396.03
395.855
395.682
395.51
395.34
395.172
395.007
394.846
394.688
394.535
394.388
394.489
394.597
394.702
394.8
394.891
400
400
400
400
400
399.82
399.62
399.408
399.19
398.97
398.751
398.534
398.319
398.108
397.902
397.699
397.501
397.307
397.117
396.93
396.745
396.563
396.383
396.205
396.028
395.853
395.679
395.507
395.337
395.169
395.004
394.842
394.683
394.53
394.383
394.484
394.591
394.696
394.795
394.886
400
400
400
400
400
399.82
399.62
399.408
399.19
398.97
398.751
398.533
398.319
398.108
397.9
397.697
397.499
397.305
397.115
396.928
396.743
396.561
396.38
396.202
396.024
395.848
395.674
395.502
395.331
395.163
394.997
394.834
394.676
394.522
394.374
394.475
394.583
394.688
394.787
394.878
400
400
400
400
400
399.82
399.62
399.409
399.191
398.971
398.752
398.534
398.319
398.108
397.901
397.698
397.499
397.305
397.115
396.928
396.743
396.561
396.38
396.2
396.022
395.846
395.671
395.499
395.328
395.159
394.992
394.829
394.67
394.516
394.368
394.469
394.577
394.682
394.781
394.873
400
400
400
400
400
399.82
399.621
399.409
399.191
398.971
398.752
398.534
398.319
398.108
397.9
397.697
397.498
397.304
397.113
396.926
396.741
396.558
396.376
396.196
396.018
395.841
395.667
395.493
395.322
395.152
394.986
394.822
394.663
394.508
394.36
394.461
394.569
394.675
394.774
394.865
400
400
400
400
400
399.821
399.621
399.41
399.193
398.973
398.753
398.536
398.321
398.109
397.902
397.699
397.5
397.306
397.115
396.928
396.742
396.559
396.377
396.197
396.018
395.841
395.666
395.492
395.321
395.151
394.984
394.82
394.66
394.505
394.356
394.457
394.566
394.671
394.77
394.862
400
400
400
400
400
399.821
399.622
399.41
399.193
398.973
398.754
398.536
398.321
398.109
397.902
397.698
397.499
397.305
397.114
396.926
396.74
396.556
396.374
396.193
396.014
395.837
395.662
395.488
395.316
395.146
394.978
394.814
394.653
394.498
394.349
394.45
394.558
394.664
394.763
394.855
400
400
400
400
400
399.822
399.623
399.412
399.195
398.976
398.756
398.539
398.324
398.112
397.904
397.701
397.502
397.307
397.115
396.927
396.74
396.556
396.373
396.192
396.012
395.834
395.658
395.484
395.311
395.14
394.972
394.807
394.645
394.489
394.338
394.439
394.547
394.653
394.752
394.843
400
400
400
400
400
399.822
399.623
399.412
399.194
398.974
398.755
398.536
398.321
398.108
397.899
397.694
397.494
397.297
397.104
396.913
396.725
396.538
396.353
396.169
395.988
395.807
395.629
395.451
395.276
395.103
394.932
394.763
394.598
394.439
394.285
394.386
394.494
394.6
394.698
394.79
400
400
400
400
400
399.822
399.623
399.411
399.192
398.971
398.748
398.527
398.308
398.091
397.878
397.668
397.462
397.26
397.06
396.863
396.667
396.473
396.281
396.09
395.9
395.712
395.525
395.339
395.155
394.973
394.793
394.615
394.441
394.272
394.108
394.21
394.32
394.427
394.525
394.617
400
400
400
400
400
399.818
399.612
399.391
399.162
398.928
398.693
398.457
398.222
397.989
397.757
397.528
397.302
397.079
396.858
396.638
396.42
396.203
395.987
395.771
395.557
395.343
395.13
394.919
394.709
394.5
394.293
394.088
393.887
393.69
393.5
393.614
393.736
393.854
393.962
394.064
400
400
400
400
399.999
399.787
399.543
399.279
399.003
398.721
398.435
398.148
397.861
397.574
397.289
397.006
396.725
396.446
396.169
395.894
395.618
395.344
395.07
394.796
394.523
394.251
393.98
393.709
393.44
393.172
392.906
392.643
392.384
392.132
391.89
392.139
392.376
392.588
392.775
392.939
400
400
400
400
400
399.862
399.703
399.525
399.33
399.121
398.901
398.672
398.436
398.195
397.949
397.699
397.447
397.193
396.938
396.682
396.424
396.166
395.907
395.647
395.386
395.123
394.861
394.599
394.337
394.077
393.819
393.564
393.314
393.071
392.837
392.911
393.005
393.109
393.215
393.313
400
400
400
400
400
399.882
399.749
399.602
399.443
399.276
399.101
398.92
398.734
398.545
398.353
398.16
397.965
397.768
397.572
397.375
397.177
396.98
396.782
396.584
396.385
396.186
395.987
395.789
395.591
395.394
395.199
395.007
394.817
394.632
394.452
394.453
394.467
394.493
394.525
394.56
400
400
400
400
400
399.885
399.756
399.615
399.464
399.306
399.142
398.974
398.802
398.629
398.453
398.278
398.101
397.925
397.749
397.574
397.399
397.224
397.05
396.877
396.703
396.529
396.356
396.184
396.012
395.843
395.675
395.509
395.347
395.189
395.035
395.037
395.05
395.072
395.099
395.13
400
400
400
400
400
399.884
399.756
399.615
399.465
399.309
399.146
398.981
398.812
398.642
398.47
398.299
398.128
397.957
397.786
397.617
397.449
397.282
397.115
396.949
396.782
396.617
396.452
396.288
396.126
395.965
395.806
395.65
395.497
395.348
395.203
395.208
395.223
395.246
395.274
395.306
400
400
400
400
400
399.884
399.756
399.616
399.466
399.31
399.148
398.982
398.814
398.645
398.475
398.304
398.134
397.965
397.796
397.629
397.463
397.297
397.133
396.969
396.805
396.642
396.48
396.319
396.159
396.001
395.845
395.692
395.542
395.397
395.255
395.261
395.277
395.3
395.329
395.361
400
400
400
400
400
399.884
399.755
399.615
399.465
399.308
399.146
398.98
398.812
398.642
398.472
398.302
398.132
397.962
397.794
397.627
397.461
397.297
397.133
396.969
396.806
396.644
396.482
396.322
396.163
396.006
395.851
395.698
395.55
395.405
395.264
395.271
395.287
395.311
395.339
395.373
400
400
400
400
400
399.884
399.755
399.615
399.465
399.308
399.146
398.981
398.812
398.643
398.473
398.303
398.133
397.964
397.796
397.629
397.464
397.3
397.136
396.973
396.81
396.648
396.486
396.326
396.167
396.01
395.856
395.704
395.556
395.411
395.271
395.277
395.294
395.317
395.346
395.38
400
400
400
400
400
399.884
399.756
399.615
399.465
399.308
399.146
398.98
398.812
398.642
398.472
398.302
398.132
397.963
397.795
397.629
397.464
397.299
397.136
396.973
396.81
396.648
396.486
396.326
396.168
396.011
395.856
395.705
395.556
395.412
395.272
395.278
395.295
395.318
395.347
395.381
400
400
400
400
400
399.885
399.756
399.616
399.466
399.309
399.147
398.982
398.814
398.644
398.475
398.305
398.135
397.967
397.799
397.633
397.468
397.304
397.14
396.977
396.815
396.653
396.491
396.332
396.173
396.016
395.862
395.71
395.562
395.417
395.277
395.284
395.3
395.324
395.353
395.386
400
400
400
400
400
399.885
399.756
399.616
399.466
399.31
399.148
398.982
398.815
398.646
398.476
398.306
398.137
397.969
397.802
397.635
397.47
397.306
397.143
396.98
396.817
396.655
396.494
396.335
396.176
396.02
395.865
395.714
395.565
395.421
395.28
395.287
395.303
395.327
395.356
395.39
400
400
400
400
400
399.885
399.757
399.617
399.468
399.311
399.15
398.985
398.817
398.648
398.479
398.31
398.141
397.973
397.806
397.64
397.475
397.311
397.148
396.985
396.823
396.661
396.5
396.341
396.182
396.026
395.872
395.72
395.572
395.427
395.287
395.293
395.31
395.333
395.362
395.396
400
400
400
400
400
399.885
399.757
399.617
399.468
399.312
399.151
398.986
398.819
398.65
398.481
398.312
398.144
397.976
397.809
397.643
397.477
397.313
397.15
396.987
396.825
396.664
396.503
396.344
396.185
396.029
395.875
395.723
395.575
395.43
395.29
395.296
395.313
395.337
395.366
395.399
400
400
400
400
400
399.885
399.758
399.618
399.47
399.314
399.153
398.988
398.821
398.653
398.484
398.315
398.147
397.979
397.812
397.645
397.48
397.315
397.152
396.989
396.827
396.666
396.506
396.347
396.189
396.033
395.879
395.727
395.579
395.434
395.293
395.3
395.316
395.34
395.369
395.403
400
400
400
400
400
399.886
399.758
399.619
399.471
399.315
399.154
398.989
398.822
398.654
398.485
398.316
398.148
397.98
397.813
397.646
397.48
397.315
397.152
396.989
396.828
396.667
396.507
396.348
396.19
396.034
395.88
395.728
395.58
395.435
395.294
395.3
395.317
395.341
395.37
395.403
400
400
400
400
400
399.886
399.759
399.62
399.472
399.316
399.155
398.99
398.823
398.655
398.486
398.317
398.149
397.981
397.813
397.646
397.48
397.315
397.152
396.99
396.828
396.668
396.508
396.349
396.191
396.035
395.881
395.73
395.581
395.436
395.295
395.301
395.318
395.341
395.37
395.404
400
400
400
400
400
399.887
399.76
399.621
399.473
399.318
399.157
398.992
398.825
398.656
398.487
398.318
398.15
397.982
397.814
397.647
397.481
397.316
397.153
396.991
396.829
396.669
396.509
396.351
396.193
396.037
395.883
395.731
395.582
395.436
395.294
395.301
395.317
395.341
395.37
395.403
400
400
400
400
400
399.887
399.76
399.622
399.474
399.318
399.158
398.993
398.825
398.657
398.487
398.318
398.149
397.981
397.814
397.647
397.481
397.316
397.153
396.991
396.83
396.669
396.51
396.351
396.194
396.038
395.883
395.731
395.582
395.436
395.293
395.3
395.316
395.34
395.369
395.402
400
400
400
400
400
399.887
399.761
399.622
399.475
399.319
399.158
398.994
398.826
398.657
398.488
398.318
398.149
397.981
397.814
397.647
397.482
397.317
397.154
396.992
396.831
396.671
396.511
396.352
396.195
396.038
395.884
395.731
395.582
395.435
395.293
395.299
395.315
395.339
395.367
395.401
400
400
400
400
400
399.887
399.761
399.623
399.475
399.32
399.159
398.994
398.826
398.657
398.487
398.317
398.148
397.98
397.813
397.647
397.481
397.317
397.154
396.992
396.831
396.67
396.51
396.351
396.193
396.037
395.882
395.729
395.579
395.432
395.289
395.295
395.311
395.335
395.363
395.397
400
400
400
400
400
399.887
399.761
399.623
399.475
399.32
399.159
398.994
398.826
398.657
398.487
398.317
398.148
397.98
397.813
397.647
397.482
397.318
397.154
396.992
396.83
396.669
396.509
396.35
396.192
396.035
395.88
395.727
395.576
395.429
395.285
395.291
395.307
395.331
395.36
395.393
400
400
400
400
400
399.887
399.761
399.623
399.475
399.32
399.159
398.994
398.826
398.657
398.487
398.316
398.147
397.979
397.812
397.646
397.48
397.316
397.152
396.989
396.827
396.666
396.506
396.346
396.187
396.03
395.874
395.721
395.57
395.422
395.278
395.284
395.3
395.324
395.352
395.386
400
400
400
400
400
399.887
399.761
399.623
399.476
399.321
399.16
398.995
398.827
398.658
398.487
398.317
398.148
397.98
397.812
397.646
397.481
397.317
397.153
396.989
396.827
396.665
396.504
396.344
396.186
396.028
395.872
395.718
395.567
395.418
395.274
395.28
395.296
395.32
395.348
395.382
400
400
400
400
400
399.887
399.761
399.624
399.476
399.321
399.16
398.995
398.827
398.657
398.487
398.317
398.147
397.979
397.812
397.645
397.48
397.315
397.151
396.987
396.824
396.662
396.501
396.341
396.182
396.024
395.867
395.713
395.561
395.413
395.268
395.274
395.29
395.313
395.342
395.376
400
400
400
400
400
399.888
399.762
399.624
399.477
399.322
399.161
398.996
398.829
398.659
398.489
398.319
398.15
397.981
397.814
397.648
397.482
397.317
397.152
396.988
396.825
396.663
396.502
396.341
396.182
396.024
395.867
395.713
395.561
395.412
395.267
395.272
395.288
395.312
395.341
395.374
400
400
400
400
400
399.888
399.762
399.624
399.477
399.322
399.162
398.997
398.829
398.659
398.489
398.319
398.149
397.981
397.813
397.647
397.48
397.315
397.15
396.986
396.823
396.66
396.498
396.338
396.178
396.019
395.863
395.707
395.555
395.406
395.26
395.266
395.282
395.305
395.334
395.367
400
400
400
400
400
399.888
399.763
399.626
399.479
399.324
399.164
398.999
398.832
398.662
398.492
398.322
398.152
397.983
397.815
397.648
397.482
397.316
397.15
396.986
396.822
396.659
396.496
396.335
396.174
396.015
395.857
395.702
395.548
395.398
395.251
395.256
395.271
395.295
395.323
395.356
400
400
400
400
400
399.888
399.763
399.625
399.478
399.323
399.162
398.997
398.829
398.659
398.487
398.316
398.145
397.975
397.805
397.636
397.467
397.299
397.132
396.965
396.799
396.633
396.468
396.304
396.141
395.979
395.819
395.66
395.503
395.349
395.2
395.204
395.218
395.24
395.268
395.3
400
400
400
400
400
399.888
399.763
399.625
399.477
399.32
399.157
398.99
398.818
398.645
398.469
398.293
398.117
397.942
397.766
397.591
397.416
397.241
397.066
396.892
396.718
396.545
396.372
396.2
396.028
395.857
395.688
395.52
395.354
395.191
395.032
395.033
395.046
395.067
395.093
395.124
400
400
400
400
400
399.885
399.756
399.612
399.456
399.29
399.116
398.935
398.75
398.56
398.368
398.174
397.979
397.784
397.588
397.391
397.193
396.995
396.797
396.599
396.4
396.202
396.003
395.805
395.607
395.41
395.213
395.018
394.825
394.635
394.448
394.448
394.462
394.488
394.519
394.554
400
400
400
400
400
399.867
399.711
399.536
399.343
399.136
398.917
398.688
398.452
398.209
397.963
397.713
397.461
397.208
396.953
396.697
396.439
396.181
395.921
395.661
395.401
395.14
394.878
394.617
394.356
394.095
393.836
393.577
393.322
393.071
392.826
392.899
392.993
393.097
393.203
393.302
400
400
400
400
400
399.895
399.777
399.648
399.507
399.355
399.193
399.021
398.84
398.651
398.456
398.254
398.046
397.833
397.616
397.395
397.17
396.942
396.712
396.478
396.242
396.003
395.762
395.52
395.277
395.034
394.792
394.55
394.311
394.077
393.848
393.845
393.855
393.876
393.907
393.934
400
400
400
400
400
399.909
399.81
399.702
399.588
399.467
399.339
399.206
399.067
398.924
398.776
398.624
398.469
398.312
398.151
397.988
397.823
397.656
397.487
397.317
397.145
396.971
396.796
396.62
396.444
396.268
396.092
395.917
395.744
395.573
395.405
395.368
395.337
395.314
395.295
395.279
400
400
400
400
400
399.911
399.814
399.712
399.603
399.488
399.369
399.245
399.118
398.987
398.853
398.717
398.578
398.438
398.296
398.152
398.008
397.863
397.716
397.569
397.42
397.271
397.121
396.97
396.82
396.67
396.521
396.373
396.227
396.083
395.941
395.913
395.889
395.87
395.854
395.843
400
400
400
400
400
399.911
399.815
399.712
399.604
399.49
399.372
399.251
399.125
398.997
398.866
398.734
398.599
398.464
398.327
398.189
398.051
397.911
397.772
397.631
397.49
397.348
397.206
397.063
396.921
396.78
396.639
396.5
396.363
396.228
396.096
396.072
396.052
396.036
396.023
396.016
400
400
400
400
400
399.911
399.815
399.712
399.604
399.491
399.373
399.252
399.127
399
398.87
398.738
398.605
398.47
398.335
398.199
398.062
397.925
397.787
397.649
397.51
397.37
397.231
397.091
396.952
396.813
396.675
396.539
396.405
396.273
396.144
396.122
396.103
396.089
396.078
396.072
400
400
400
400
400
399.911
399.815
399.712
399.603
399.49
399.372
399.25
399.125
398.998
398.868
398.736
398.603
398.468
398.333
398.197
398.061
397.924
397.787
397.649
397.51
397.371
397.232
397.093
396.955
396.817
396.68
396.545
396.412
396.281
396.152
396.13
396.112
396.098
396.088
396.083
400
400
400
400
400
399.911
399.815
399.712
399.604
399.49
399.372
399.251
399.126
398.998
398.869
398.737
398.604
398.47
398.334
398.199
398.063
397.926
397.789
397.651
397.513
397.374
397.235
397.097
396.958
396.821
396.684
396.549
396.416
396.286
396.158
396.136
396.118
396.104
396.094
396.09
400
400
400
400
400
399.911
399.815
399.712
399.604
399.49
399.372
399.25
399.126
398.998
398.868
398.736
398.603
398.469
398.334
398.198
398.062
397.926
397.789
397.651
397.512
397.374
397.235
397.096
396.958
396.82
396.684
396.549
396.416
396.286
396.158
396.136
396.118
396.104
396.094
396.09
400
400
400
400
400
399.911