/*--------------------------------*- C++ -*----------------------------------*\
| =========                 |                                                 |
| \\      /  F ield         | OpenFOAM: The Open Source CFD Toolbox           |
|  \\    /   O peration     | Version:  5.0                                   |
|   \\  /    A nd           | Web:      www.OpenFOAM.org                      |
|    \\/     M anipulation  |                                                 |
\*---------------------------------------------------------------------------*/
FoamFile
{
    version     2.0;
    format      ascii;
    class       volScalarField;
    location    "1900/porous";
    object      T;
}
// * * * * * * * * * * * * * * * * * * * * * * * * * * * * * * * * * * * * * //

dimensions      [0 0 0 1 0 0 0];

internalField   nonuniform List<scalar> 
36000
(
400
400
400
400
399.999
399.588
399.213
398.862
398.527
398.204
397.89
397.583
397.28
396.982
396.688
396.397
396.109
395.823
395.54
395.259
394.981
394.703
394.427
394.151
393.874
393.599
393.324
393.052
392.783
392.518
392.257
392.002
391.757
391.525
391.311
391.831
392.184
392.453
392.672
392.857
400
400
400
400
399.999
399.637
399.308
399.001
398.711
398.433
398.166
397.906
397.653
397.405
397.162
396.923
396.688
396.455
396.226
396
395.776
395.554
395.333
395.113
394.893
394.674
394.456
394.241
394.028
393.819
393.614
393.414
393.222
393.039
392.866
393.209
393.45
393.636
393.784
393.915
400
400
400
400
399.999
399.644
399.323
399.026
398.746
398.481
398.227
397.982
397.744
397.514
397.289
397.069
396.854
396.642
396.435
396.231
396.03
395.832
395.636
395.441
395.246
395.053
394.862
394.672
394.486
394.304
394.126
393.954
393.788
393.631
393.483
393.8
394.026
394.201
394.341
394.462
400
400
400
400
399.999
399.644
399.324
399.027
398.749
398.485
398.234
397.991
397.758
397.531
397.31
397.096
396.886
396.681
396.48
396.283
396.089
395.899
395.711
395.524
395.337
395.152
394.969
394.789
394.612
394.439
394.27
394.107
393.951
393.804
393.665
393.976
394.201
394.375
394.516
394.636
400
400
400
400
399.999
399.644
399.324
399.028
398.75
398.487
398.235
397.994
397.76
397.535
397.315
397.102
396.894
396.69
396.491
396.296
396.105
395.917
395.732
395.547
395.363
395.181
395
394.823
394.648
394.478
394.312
394.153
394
393.856
393.721
394.03
394.254
394.428
394.569
394.689
400
400
400
400
399.999
399.644
399.324
399.027
398.749
398.485
398.234
397.992
397.759
397.533
397.314
397.101
396.893
396.689
396.491
396.297
396.107
395.92
395.735
395.551
395.367
395.185
395.006
394.829
394.655
394.485
394.321
394.162
394.011
393.867
393.733
394.042
394.266
394.439
394.581
394.701
400
400
400
400
399.999
399.644
399.324
399.028
398.75
398.486
398.235
397.993
397.76
397.535
397.316
397.103
396.895
396.693
396.494
396.301
396.111
395.925
395.74
395.556
395.373
395.191
395.012
394.835
394.661
394.492
394.328
394.17
394.018
393.875
393.74
394.049
394.273
394.447
394.588
394.708
400
400
400
400
399.999
399.645
399.325
399.029
398.751
398.487
398.236
397.994
397.761
397.536
397.317
397.105
396.897
396.695
396.497
396.304
396.114
395.928
395.743
395.559
395.376
395.194
395.014
394.838
394.665
394.495
394.331
394.173
394.021
393.878
393.743
394.052
394.276
394.449
394.591
394.711
400
400
400
400
399.999
399.645
399.325
399.03
398.753
398.49
398.239
397.997
397.765
397.54
397.322
397.11
396.903
396.701
396.503
396.31
396.121
395.935
395.75
395.566
395.382
395.201
395.021
394.845
394.671
394.502
394.338
394.18
394.028
393.885
393.749
394.058
394.282
394.455
394.597
394.717
400
400
400
400
399.999
399.645
399.326
399.032
398.755
398.492
398.241
398
397.768
397.544
397.326
397.114
396.908
396.706
396.509
396.316
396.127
395.94
395.755
395.57
395.387
395.205
395.026
394.85
394.676
394.507
394.343
394.185
394.033
393.889
393.754
394.062
394.286
394.459
394.6
394.72
400
400
400
400
399.999
399.646
399.328
399.034
398.758
398.495
398.245
398.004
397.772
397.548
397.331
397.12
396.914
396.713
396.516
396.323
396.133
395.946
395.761
395.576
395.393
395.212
395.033
394.856
394.683
394.514
394.35
394.192
394.04
393.896
393.76
394.068
394.292
394.465
394.606
394.726
400
400
400
400
399.999
399.647
399.329
399.035
398.76
398.498
398.248
398.007
397.775
397.552
397.335
397.124
396.918
396.717
396.52
396.326
396.136
395.948
395.763
395.579
395.397
395.216
395.037
394.861
394.688
394.519
394.354
394.196
394.044
393.899
393.763
394.072
394.295
394.468
394.609
394.729
400
400
400
400
399.999
399.647
399.331
399.038
398.762
398.501
398.251
398.01
397.779
397.555
397.338
397.127
396.922
396.721
396.523
396.329
396.138
395.95
395.765
395.582
395.4
395.219
395.041
394.865
394.692
394.523
394.359
394.2
394.048
393.903
393.766
394.075
394.298
394.471
394.612
394.732
400
400
400
400
399.999
399.648
399.332
399.039
398.764
398.503
398.253
398.012
397.78
397.556
397.339
397.129
396.923
396.722
396.524
396.329
396.138
395.95
395.765
395.582
395.401
395.221
395.042
394.867
394.694
394.525
394.36
394.202
394.049
393.903
393.766
394.075
394.299
394.472
394.613
394.733
400
400
400
400
399.999
399.648
399.332
399.04
398.766
398.505
398.255
398.014
397.782
397.557
397.34
397.129
396.924
396.722
396.524
396.329
396.137
395.949
395.765
395.582
395.402
395.222
395.044
394.868
394.696
394.527
394.362
394.203
394.05
393.904
393.767
394.076
394.299
394.472
394.614
394.733
400
400
400
400
399.999
399.649
399.334
399.042
398.768
398.507
398.257
398.016
397.783
397.558
397.34
397.129
396.923
396.722
396.524
396.329
396.137
395.949
395.765
395.583
395.403
395.223
395.046
394.87
394.698
394.528
394.364
394.204
394.05
393.903
393.765
394.074
394.298
394.471
394.613
394.732
400
400
400
400
399.999
399.649
399.334
399.043
398.769
398.508
398.257
398.016
397.783
397.558
397.339
397.128
396.922
396.721
396.523
396.328
396.137
395.949
395.765
395.583
395.403
395.224
395.047
394.871
394.698
394.529
394.363
394.203
394.049
393.901
393.763
394.072
394.296
394.47
394.611
394.731
400
400
400
400
399.999
399.65
399.335
399.044
398.77
398.509
398.258
398.017
397.783
397.557
397.339
397.127
396.921
396.72
396.523
396.329
396.138
395.95
395.766
395.584
395.404
395.225
395.047
394.872
394.699
394.529
394.363
394.202
394.047
393.899
393.76
394.07
394.294
394.468
394.61
394.729
400
400
400
400
399.999
399.65
399.336
399.045
398.77
398.509
398.258
398.016
397.783
397.557
397.337
397.125
396.919
396.718
396.522
396.328
396.138
395.95
395.766
395.583
395.402
395.223
395.046
394.87
394.697
394.526
394.36
394.198
394.042
393.894
393.754
394.064
394.289
394.463
394.605
394.725
400
400
400
400
399.999
399.651
399.336
399.045
398.771
398.509
398.258
398.016
397.783
397.556
397.337
397.124
396.918
396.717
396.521
396.328
396.138
395.95
395.765
395.582
395.401
395.221
395.043
394.867
394.694
394.523
394.356
394.193
394.037
393.888
393.748
394.059
394.284
394.458
394.6
394.721
400
400
400
400
399.999
399.651
399.337
399.045
398.771
398.509
398.258
398.016
397.782
397.555
397.335
397.122
396.916
396.715
396.52
396.327
396.136
395.948
395.762
395.578
395.396
395.216
395.038
394.861
394.687
394.516
394.348
394.185
394.028
393.879
393.738
394.05
394.276
394.45
394.593
394.713
400
400
400
400
399.999
399.651
399.337
399.046
398.772
398.51
398.259
398.016
397.782
397.555
397.335
397.122
396.916
396.715
396.52
396.327
396.136
395.947
395.76
395.575
395.393
395.212
395.034
394.857
394.683
394.511
394.343
394.179
394.022
393.872
393.731
394.044
394.27
394.444
394.587
394.708
400
400
400
400
399.999
399.651
399.338
399.047
398.772
398.51
398.259
398.016
397.782
397.555
397.334
397.121
396.915
396.714
396.518
396.324
396.133
395.943
395.756
395.571
395.387
395.206
395.028
394.851
394.676
394.504
394.335
394.171
394.013
393.863
393.722
394.035
394.262
394.437
394.58
394.701
400
400
400
400
399.999
399.652
399.339
399.048
398.773
398.511
398.26
398.017
397.783
397.556
397.336
397.123
396.916
396.715
396.519
396.325
396.133
395.943
395.755
395.569
395.386
395.205
395.025
394.848
394.673
394.501
394.332
394.168
394.009
393.859
393.717
394.031
394.257
394.433
394.576
394.697
400
400
400
400
399.999
399.652
399.339
399.048
398.774
398.512
398.26
398.017
397.782
397.555
397.335
397.122
396.915
396.714
396.517
396.322
396.129
395.939
395.751
395.565
395.381
395.2
395.02
394.843
394.667
394.495
394.325
394.161
394.002
393.85
393.709
394.022
394.25
394.425
394.569
394.69
400
400
400
400
399.999
399.653
399.34
399.05
398.776
398.514
398.262
398.02
397.785
397.558
397.337
397.124
396.917
396.715
396.517
396.321
396.128
395.937
395.749
395.562
395.378
395.196
395.015
394.837
394.661
394.488
394.318
394.152
393.992
393.839
393.696
394.01
394.238
394.413
394.557
394.678
400
400
400
400
399.999
399.653
399.341
399.049
398.775
398.512
398.26
398.017
397.782
397.553
397.332
397.117
396.908
396.704
396.504
396.306
396.111
395.918
395.728
395.539
395.353
395.168
394.985
394.804
394.626
394.45
394.277
394.108
393.944
393.788
393.641
393.957
394.185
394.361
394.503
394.624
400
400
400
400
399.999
399.654
399.341
399.048
398.772
398.507
398.253
398.006
397.767
397.535
397.308
397.088
396.874
396.664
396.457
396.253
396.05
395.85
395.652
395.456
395.262
395.069
394.878
394.688
394.501
394.316
394.134
393.956
393.782
393.616
393.46
393.781
394.011
394.188
394.329
394.452
400
400
400
400
399.999
399.647
399.325
399.023
398.735
398.458
398.19
397.929
397.674
397.424
397.18
396.94
396.705
396.474
396.245
396.019
395.794
395.57
395.348
395.128
394.908
394.69
394.474
394.259
394.045
393.834
393.625
393.419
393.218
393.025
392.842
393.191
393.435
393.623
393.773
393.905
400
400
400
400
399.999
399.599
399.232
398.885
398.552
398.229
397.914
397.604
397.299
396.999
396.703
396.411
396.124
395.84
395.557
395.277
394.997
394.719
394.442
394.166
393.891
393.617
393.344
393.073
392.803
392.536
392.271
392.009
391.754
391.508
391.279
391.808
392.165
392.436
392.657
392.843
400
400
400
400
399.999
399.781
399.532
399.264
398.986
398.702
398.416
398.13
397.844
397.558
397.274
396.992
396.71
396.43
396.152
395.875
395.599
395.324
395.05
394.776
394.502
394.229
393.956
393.685
393.415
393.149
392.886
392.628
392.378
392.137
391.91
392.157
392.392
392.603
392.789
392.951
400
400
400
400
400
399.813
399.602
399.377
399.145
398.91
398.674
398.438
398.203
397.971
397.74
397.512
397.286
397.061
396.839
396.618
396.4
396.183
395.967
395.751
395.537
395.322
395.109
394.897
394.687
394.48
394.275
394.075
393.879
393.691
393.51
393.625
393.746
393.863
393.97
394.071
400
400
400
400
400
399.817
399.613
399.397
399.175
398.951
398.728
398.507
398.288
398.072
397.859
397.65
397.443
397.24
397.039
396.841
396.645
396.451
396.26
396.069
395.88
395.691
395.504
395.318
395.135
394.954
394.777
394.604
394.435
394.273
394.118
394.22
394.329
394.435
394.533
394.625
400
400
400
400
400
399.817
399.613
399.398
399.177
398.955
398.734
398.515
398.299
398.088
397.879
397.675
397.473
397.275
397.081
396.889
396.7
396.514
396.33
396.148
395.967
395.786
395.607
395.431
395.256
395.084
394.916
394.752
394.594
394.441
394.295
394.396
394.504
394.609
394.707
394.797
400
400
400
400
400
399.817
399.614
399.398
399.178
398.956
398.735
398.517
398.302
398.091
397.884
397.68
397.481
397.284
397.091
396.902
396.715
396.531
396.35
396.17
395.991
395.813
395.637
395.463
395.291
395.122
394.957
394.796
394.641
394.492
394.349
394.45
394.557
394.662
394.76
394.851
400
400
400
400
400
399.817
399.613
399.397
399.176
398.954
398.733
398.515
398.3
398.088
397.881
397.678
397.478
397.282
397.09
396.901
396.715
396.532
396.351
396.172
395.993
395.816
395.641
395.468
395.297
395.129
394.964
394.804
394.65
394.501
394.36
394.46
394.568
394.673
394.772
394.863
400
400
400
400
400
399.817
399.613
399.398
399.177
398.955
398.734
398.515
398.301
398.09
397.883
397.68
397.48
397.285
397.092
396.904
396.719
396.536
396.356
396.176
395.998
395.821
395.646
395.473
395.302
395.135
394.97
394.811
394.657
394.508
394.367
394.468
394.575
394.68
394.779
394.87
400
400
400
400
400
399.817
399.613
399.398
399.177
398.955
398.734
398.515
398.301
398.09
397.883
397.68
397.481
397.285
397.093
396.905
396.72
396.538
396.357
396.178
396
395.823
395.648
395.475
395.304
395.136
394.972
394.813
394.659
394.51
394.369
394.47
394.577
394.682
394.781
394.872
400
400
400
400
400
399.817
399.614
399.399
399.178
398.956
398.735
398.518
398.303
398.093
397.886
397.684
397.485
397.29
397.098
396.91
396.726
396.544
396.363
396.184
396.006
395.829
395.654
395.481
395.31
395.143
394.979
394.819
394.665
394.517
394.375
394.475
394.583
394.688
394.786
394.877
400
400
400
400
400
399.817
399.614
399.399
399.179
398.957
398.737
398.519
398.305
398.095
397.889
397.687
397.488
397.293
397.102
396.914
396.73
396.547
396.367
396.188
396.009
395.833
395.658
395.485
395.314
395.147
394.983
394.823
394.669
394.521
394.378
394.479
394.587
394.692
394.79
394.881
400
400
400
400
400
399.818
399.615
399.4
399.181
398.959
398.739
398.522
398.308
398.098
397.893
397.691
397.493
397.299
397.108
396.92
396.735
396.553
396.372
396.193
396.015
395.838
395.664
395.491
395.32
395.153
394.989
394.83
394.675
394.527
394.384
394.485
394.593
394.697
394.795
394.886
400
400
400
400
400
399.818
399.615
399.401
399.182
398.961
398.741
398.524
398.31
398.101
397.895
397.694
397.496
397.302
397.111
396.923
396.738
396.555
396.375
396.196
396.018
395.841
395.667
395.494
395.324
395.157
394.993
394.833
394.679
394.53
394.387
394.488
394.596
394.7
394.798
394.889
400
400
400
400
400
399.818
399.616
399.403
399.184
398.963
398.744
398.527
398.313
398.103
397.898
397.697
397.499
397.305
397.114
396.926
396.74
396.557
396.377
396.198
396.02
395.844
395.67
395.497
395.327
395.16
394.997
394.837
394.682
394.533
394.39
394.491
394.599
394.703
394.801
394.892
400
400
400
400
400
399.819
399.617
399.403
399.185
398.964
398.745
398.528
398.314
398.105
397.899
397.698
397.5
397.306
397.115
396.926
396.74
396.557
396.376
396.198
396.021
395.845
395.671
395.499
395.329
395.162
394.998
394.838
394.683
394.534
394.391
394.492
394.599
394.704
394.802
394.893
400
400
400
400
400
399.819
399.617
399.404
399.186
398.966
398.746
398.529
398.316
398.106
397.9
397.699
397.501
397.307
397.115
396.926
396.74
396.557
396.376
396.198
396.021
395.846
395.672
395.5
395.33
395.163
395
394.84
394.685
394.535
394.392
394.492
394.6
394.704
394.803
394.894
400
400
400
400
400
399.819
399.618
399.405
399.187
398.967
398.748
398.531
398.317
398.107
397.901
397.699
397.501
397.307
397.115
396.926
396.74
396.557
396.376
396.198
396.022
395.847
395.673
395.502
395.332
395.165
395.001
394.841
394.685
394.535
394.391
394.491
394.599
394.704
394.802
394.893
400
400
400
400
400
399.819
399.618
399.406
399.188
398.968
398.748
398.531
398.317
398.107
397.9
397.698
397.5
397.306
397.115
396.926
396.74
396.557
396.376
396.198
396.022
395.847
395.674
395.502
395.333
395.165
395.001
394.84
394.684
394.534
394.389
394.49
394.598
394.702
394.801
394.892
400
400
400
400
400
399.82
399.619
399.407
399.189
398.969
398.749
398.532
398.318
398.107
397.9
397.698
397.5
397.305
397.114
396.926
396.74
396.557
396.377
396.199
396.023
395.848
395.675
395.503
395.333
395.166
395.001
394.84
394.684
394.533
394.388
394.488
394.596
394.701
394.799
394.89
400
400
400
400
400
399.82
399.619
399.407
399.189
398.969
398.75
398.532
398.317
398.106
397.899
397.697
397.498
397.304
397.113
396.925
396.74
396.557
396.377
396.199
396.022
395.847
395.674
395.502
395.332
395.164
394.999
394.837
394.68
394.528
394.383
394.484
394.591
394.696
394.795
394.886
400
400
400
400
400
399.82
399.62
399.407
399.19
398.97
398.75
398.532
398.318
398.107
397.899
397.697
397.498
397.304
397.113
396.926
396.74
396.558
396.377
396.198
396.021
395.846
395.672
395.5
395.33
395.161
394.996
394.834
394.676
394.524
394.378
394.479
394.587
394.692
394.791
394.882
400
400
400
400
400
399.82
399.62
399.408
399.19
398.97
398.75
398.532
398.317
398.106
397.899
397.696
397.497
397.303
397.112
396.924
396.739
396.556
396.375
396.195
396.018
395.842
395.668
395.495
395.324
395.156
394.99
394.827
394.669
394.517
394.37
394.471
394.579
394.685
394.783
394.875
400
400
400
400
400
399.82
399.62
399.408
399.191
398.971
398.751
398.533
398.318
398.107
397.9
397.696
397.498
397.303
397.113
396.925
396.739
396.556
396.374
396.194
396.016
395.84
395.665
395.492
395.321
395.152
394.986
394.823
394.665
394.511
394.365
394.466
394.574
394.68
394.778
394.87
400
400
400
400
400
399.82
399.621
399.409
399.191
398.971
398.751
398.533
398.318
398.107
397.899
397.696
397.497
397.302
397.112
396.924
396.738
396.554
396.371
396.191
396.012
395.836
395.661
395.487
395.316
395.147
394.98
394.817
394.657
394.504
394.357
394.459
394.567
394.673
394.771
394.863
400
400
400
400
400
399.821
399.621
399.41
399.192
398.973
398.753
398.535
398.32
398.109
397.901
397.698
397.499
397.304
397.113
396.925
396.739
396.554
396.372
396.191
396.012
395.835
395.66
395.487
395.315
395.145
394.978
394.815
394.655
394.501
394.354
394.455
394.564
394.669
394.768
394.86
400
400
400
400
400
399.821
399.622
399.41
399.193
398.973
398.753
398.535
398.32
398.109
397.901
397.698
397.498
397.304
397.112
396.923
396.737
396.552
396.369
396.188
396.009
395.831
395.656
395.482
395.31
395.14
394.973
394.808
394.648
394.494
394.346
394.448
394.556
394.662
394.761
394.853
400
400
400
400
400
399.822
399.623
399.412
399.195
398.976
398.756
398.538
398.323
398.112
397.904
397.7
397.501
397.306
397.114
396.924
396.737
396.551
396.368
396.186
396.007
395.829
395.652
395.478
395.305
395.134
394.966
394.801
394.64
394.485
394.336
394.437
394.545
394.651
394.75
394.841
400
400
400
400
400
399.822
399.623
399.412
399.194
398.974
398.755
398.536
398.32
398.108
397.899
397.694
397.493
397.296
397.102
396.911
396.721
396.534
396.348
396.164
395.982
395.802
395.623
395.446
395.27
395.097
394.926
394.758
394.594
394.435
394.282
394.383
394.492
394.598
394.696
394.788
400
400
400
400
400
399.822
399.623
399.411
399.193
398.971
398.748
398.527
398.308
398.091
397.878
397.668
397.462
397.259
397.058
396.86
396.664
396.469
396.276
396.085
395.895
395.707
395.52
395.334
395.15
394.968
394.788
394.61
394.437
394.268
394.106
394.208
394.318
394.425
394.523
394.616
400
400
400
400
400
399.818
399.612
399.392
399.162
398.929
398.693
398.457
398.222
397.989
397.757
397.528
397.302
397.078
396.856
396.636
396.417
396.199
395.982
395.766
395.552
395.338
395.125
394.914
394.703
394.495
394.288
394.083
393.882
393.687
393.498
393.613
393.735
393.853
393.96
394.062
400
400
400
400
399.999
399.787
399.543
399.279
399.004
398.721
398.436
398.149
397.861
397.575
397.289
397.006
396.725
396.445
396.168
395.891
395.615
395.339
395.065
394.791
394.518
394.246
393.974
393.704
393.435
393.167
392.901
392.638
392.38
392.129
391.89
392.138
392.375
392.587
392.775
392.938
400
400
400
400
400
399.863
399.704
399.526
399.331
399.122
398.902
398.674
398.438
398.196
397.95
397.7
397.448
397.194
396.938
396.68
396.422
396.164
395.904
395.644
395.382
395.12
394.858
394.595
394.334
394.074
393.816
393.561
393.311
393.068
392.835
392.909
393.003
393.107
393.213
393.311
400
400
400
400
400
399.882
399.749
399.603
399.444
399.277
399.102
398.921
398.736
398.546
398.354
398.161
397.965
397.769
397.571
397.374
397.176
396.978
396.78
396.582
396.383
396.184
395.985
395.786
395.588
395.391
395.196
395.004
394.814
394.63
394.45
394.45
394.465
394.491
394.523
394.558
400
400
400
400
400
399.885
399.757
399.616
399.465
399.307
399.143
398.975
398.803
398.63
398.454
398.278
398.102
397.925
397.749
397.573
397.397
397.222
397.048
396.874
396.7
396.526
396.353
396.181
396.01
395.84
395.672
395.506
395.344
395.186
395.033
395.035
395.048
395.07
395.096
395.127
400
400
400
400
400
399.885
399.757
399.616
399.467
399.31
399.148
398.982
398.813
398.643
398.471
398.3
398.128
397.957
397.786
397.616
397.447
397.279
397.112
396.946
396.78
396.614
396.449
396.285
396.123
395.962
395.803
395.647
395.494
395.345
395.201
395.206
395.22
395.243
395.271
395.303
400
400
400
400
400
399.885
399.757
399.617
399.467
399.311
399.149
398.984
398.816
398.646
398.476
398.305
398.135
397.965
397.796
397.628
397.461
397.295
397.13
396.966
396.803
396.639
396.477
396.316
396.156
395.998
395.842
395.689
395.539
395.394
395.252
395.258
395.274
395.298
395.326
395.359
400
400
400
400
400
399.885
399.757
399.616
399.466
399.309
399.147
398.981
398.813
398.643
398.473
398.302
398.132
397.962
397.794
397.626
397.46
397.295
397.131
396.967
396.804
396.641
396.48
396.319
396.16
396.003
395.848
395.695
395.547
395.402
395.262
395.268
395.284
395.308
395.337
395.37
400
400
400
400
400
399.885
399.757
399.616
399.467
399.31
399.148
398.982
398.814
398.644
398.474
398.304
398.133
397.964
397.796
397.628
397.462
397.298
397.134
396.97
396.807
396.645
396.484
396.324
396.165
396.008
395.853
395.701
395.553
395.408
395.268
395.275
395.291
395.315
395.344
395.377
400
400
400
400
400
399.885
399.757
399.616
399.467
399.31
399.147
398.982
398.813
398.644
398.473
398.303
398.133
397.963
397.795
397.628
397.462
397.298
397.134
396.971
396.808
396.645
396.484
396.324
396.165
396.008
395.853
395.702
395.553
395.409
395.269
395.275
395.292
395.316
395.345
395.378
400
400
400
400
400
399.885
399.757
399.617
399.467
399.311
399.149
398.983
398.815
398.646
398.476
398.306
398.136
397.967
397.799
397.632
397.466
397.302
397.138
396.975
396.812
396.65
396.489
396.329
396.17
396.013
395.859
395.707
395.559
395.414
395.274
395.28
395.297
395.321
395.35
395.383
400
400
400
400
400
399.885
399.757
399.617
399.468
399.311
399.149
398.984
398.816
398.647
398.477
398.307
398.138
397.969
397.801
397.634
397.469
397.304
397.141
396.977
396.815
396.653
396.491
396.331
396.173
396.016
395.861
395.71
395.561
395.417
395.276
395.283
395.299
395.323
395.352
395.386
400
400
400
400
400
399.886
399.758
399.618
399.469
399.313
399.151
398.986
398.818
398.649
398.48
398.31
398.141
397.973
397.805
397.639
397.473
397.309
397.145
396.982
396.819
396.657
396.496
396.336
396.178
396.021
395.867
395.715
395.567
395.422
395.282
395.288
395.305
395.329
395.358
395.391
400
400
400
400
400
399.886
399.758
399.619
399.47
399.314
399.152
398.987
398.819
398.651
398.481
398.312
398.143
397.975
397.807
397.641
397.475
397.31
397.147
396.984
396.821
396.659
396.499
396.339
396.18
396.024
395.869
395.718
395.569
395.425
395.284
395.291
395.307
395.331
395.36
395.393
400
400
400
400
400
399.886
399.759
399.62
399.471
399.315
399.154
398.989
398.821
398.653
398.483
398.314
398.146
397.977
397.81
397.643
397.477
397.312
397.149
396.986
396.823
396.662
396.501
396.342
396.183
396.027
395.872
395.721
395.572
395.428
395.287
395.294
395.31
395.334
395.363
395.396
400
400
400
400
400
399.886
399.759
399.62
399.472
399.316
399.155
398.99
398.822
398.654
398.484
398.315
398.146
397.978
397.81
397.643
397.477
397.312
397.149
396.986
396.824
396.662
396.502
396.342
396.184
396.028
395.873
395.722
395.573
395.428
395.287
395.294
395.31
395.334
395.363
395.397
400
400
400
400
400
399.886
399.759
399.621
399.472
399.317
399.156
398.991
398.823
398.654
398.485
398.316
398.147
397.979
397.811
397.644
397.477
397.312
397.149
396.986
396.824
396.663
396.503
396.343
396.185
396.029
395.875
395.723
395.574
395.429
395.288
395.295
395.311
395.335
395.364
395.398
400
400
400
400
400
399.887
399.76
399.621
399.473
399.318
399.157
398.992
398.824
398.655
398.486
398.316
398.147
397.979
397.811
397.644
397.478
397.313
397.149
396.986
396.825
396.664
396.504
396.344
396.186
396.03
395.876
395.724
395.575
395.429
395.288
395.294
395.311
395.335
395.364
395.397
400
400
400
400
400
399.887
399.76
399.622
399.474
399.318
399.157
398.992
398.824
398.655
398.486
398.316
398.147
397.978
397.811
397.643
397.477
397.312
397.149
396.986
396.825
396.664
396.504
396.345
396.187
396.03
395.876
395.724
395.574
395.429
395.287
395.294
395.31
395.334
395.363
395.396
400
400
400
400
400
399.887
399.761
399.622
399.474
399.319
399.158
398.993
398.825
398.656
398.486
398.316
398.147
397.978
397.811
397.644
397.478
397.313
397.15
396.987
396.825
396.665
396.505
396.346
396.188
396.031
395.876
395.724
395.574
395.428
395.286
395.293
395.309
395.333
395.362
395.395
400
400
400
400
400
399.887
399.761
399.622
399.475
399.319
399.158
398.993
398.825
398.656
398.485
398.315
398.146
397.978
397.81
397.643
397.478
397.313
397.149
396.987
396.825
396.664
396.504
396.345
396.186
396.03
395.875
395.722
395.572
395.425
395.283
395.289
395.305
395.329
395.358
395.392
400
400
400
400
400
399.887
399.761
399.623
399.475
399.32
399.159
398.993
398.825
398.656
398.486
398.316
398.146
397.978
397.81
397.644
397.478
397.314
397.15
396.987
396.825
396.664
396.503
396.344
396.186
396.028
395.873
395.72
395.57
395.423
395.28
395.286
395.303
395.326
395.355
395.389
400
400
400
400
400
399.887
399.761
399.623
399.475
399.32
399.159
398.993
398.825
398.656
398.485
398.315
398.145
397.977
397.81
397.643
397.477
397.312
397.148
396.985
396.823
396.661
396.5
396.341
396.182
396.024
395.869
395.715
395.564
395.417
395.274
395.28
395.296
395.32
395.349
395.383
400
400
400
400
400
399.887
399.761
399.623
399.476
399.32
399.159
398.994
398.826
398.657
398.487
398.316
398.147
397.978
397.811
397.644
397.478
397.313
397.149
396.985
396.822
396.661
396.5
396.34
396.181
396.023
395.867
395.713
395.562
395.414
395.271
395.277
395.293
395.317
395.346
395.379
400
400
400
400
400
399.887
399.761
399.624
399.476
399.321
399.16
398.994
398.826
398.657
398.486
398.316
398.146
397.978
397.81
397.643
397.477
397.312
397.147
396.983
396.82
396.658
396.496
396.336
396.177
396.019
395.862
395.708
395.557
395.409
395.265
395.271
395.287
395.311
395.34
395.373
400
400
400
400
400
399.888
399.762
399.624
399.477
399.322
399.161
398.996
398.828
398.659
398.489
398.318
398.149
397.98
397.813
397.646
397.48
397.314
397.149
396.985
396.821
396.659
396.497
396.337
396.177
396.019
395.862
395.708
395.556
395.408
395.264
395.27
395.286
395.309
395.338
395.372
400
400
400
400
400
399.888
399.762
399.625
399.477
399.322
399.161
398.996
398.829
398.659
398.489
398.318
398.149
397.98
397.812
397.645
397.478
397.312
397.147
396.982
396.819
396.656
396.494
396.333
396.173
396.015
395.858
395.703
395.551
395.402
395.257
395.263
395.279
395.303
395.331
395.365
400
400
400
400
400
399.888
399.763
399.626
399.479
399.324
399.164
398.999
398.831
398.662
398.492
398.321
398.152
397.983
397.814
397.647
397.479
397.313
397.147
396.982
396.818
396.655
396.492
396.33
396.17
396.011
395.853
395.697
395.544
395.394
395.248
395.254
395.269
395.292
395.32
395.353
400
400
400
400
400
399.888
399.763
399.625
399.478
399.323
399.162
398.997
398.829
398.658
398.487
398.316
398.145
397.974
397.804
397.634
397.465
397.297
397.129
396.961
396.795
396.629
396.464
396.3
396.137
395.975
395.814
395.655
395.499
395.346
395.197
395.201
395.215
395.238
395.266
395.298
400
400
400
400
400
399.888
399.763
399.625
399.477
399.32
399.158
398.99
398.818
398.645
398.469
398.293
398.117
397.941
397.765
397.589
397.414
397.238
397.063
396.889
396.715
396.541
396.368
396.196
396.024
395.853
395.684
395.516
395.35
395.188
395.029
395.031
395.043
395.065
395.091
395.122
400
400
400
400
400
399.886
399.756
399.612
399.456
399.29
399.116
398.935
398.75
398.561
398.368
398.174
397.979
397.783
397.587
397.389
397.191
396.993
396.794
396.596
396.397
396.198
395.999
395.801
395.603
395.406
395.209
395.014
394.821
394.631
394.446
394.446
394.46
394.486
394.517
394.552
400
400
400
400
400
399.867
399.712
399.536
399.343
399.136
398.917
398.688
398.452
398.21
397.963
397.713
397.461
397.207
396.952
396.695
396.437
396.178
395.918
395.657
395.396
395.135
394.874
394.612
394.351
394.091
393.831
393.573
393.318
393.067
392.825
392.898
392.992
393.096
393.202
393.301
400
400
400
400
400
399.895
399.778
399.649
399.508
399.356
399.194
399.022
398.841
398.652
398.457
398.254
398.046
397.833
397.616
397.394
397.169
396.941
396.71
396.476
396.239
396
395.76
395.518
395.275
395.032
394.789
394.548
394.309
394.074
393.846
393.843
393.853
393.874
393.905
393.932
400
400
400
400
400
399.909
399.81
399.703
399.589
399.468
399.34
399.207
399.068
398.925
398.777
398.625
398.47
398.312
398.151
397.988
397.822
397.655
397.486
397.315
397.143
396.969
396.794
396.618
396.442
396.266
396.09
395.915
395.742
395.571
395.403
395.366
395.335
395.312
395.293
395.278
400
400
400
400
400
399.911
399.815
399.712
399.604
399.489
399.37
399.246
399.119
398.988
398.854
398.717
398.579
398.438
398.296
398.152
398.007
397.861
397.715
397.567
397.418
397.269
397.119
396.968
396.818
396.668
396.519
396.371
396.224
396.081
395.939
395.911
395.887
395.868
395.852
395.841
400
400
400
400
400
399.911
399.815
399.713
399.605
399.491
399.373
399.251
399.126
398.998
398.867
398.734
398.6
398.464
398.327
398.188
398.05
397.91
397.77
397.629
397.488
397.346
397.204
397.061
396.919
396.778
396.637
396.498
396.361
396.226
396.094
396.07
396.049
396.034
396.021
396.014
400
400
400
400
400
399.911
399.816
399.713
399.605
399.492
399.374
399.253
399.128
399.001
398.871
398.739
398.605
398.471
398.335
398.198
398.061
397.924
397.786
397.647
397.508
397.368
397.229
397.089
396.95
396.811
396.673
396.537
396.403
396.271
396.142
396.12
396.101
396.086
396.075
396.07
400
400
400
400
400
399.911
399.815
399.713
399.605
399.491
399.373
399.251
399.126
398.999
398.869
398.737
398.603
398.469
398.333
398.197
398.06
397.923
397.786
397.648
397.509
397.37
397.231
397.091
396.953
396.815
396.678
396.543
396.409
396.278
396.15
396.128
396.11
396.096
396.086
396.081
400
400
400
400
400
399.911
399.815
399.713
399.605
399.491
399.374
399.252
399.127
398.999
398.869
398.738
398.604
398.47
398.334
398.198
398.062
397.925
397.788
397.65
397.512
397.373
397.234
397.095
396.956
396.819
396.682
396.547
396.414
396.284
396.156
396.134
396.116
396.102
396.092
396.088
400
400
400
400
400
399.911
399.816
399.713
399.605
399.491
399.373
399.252
399.127
398.999
398.869
398.737
398.604
398.469
398.334
398.198
398.062
397.925
397.788
397.65
397.511
397.372
397.233
397.094
396.956
396.818
396.682
396.547
396.414
396.283
396.155
396.134
396.116
396.102